+ 0.1 1 2 cbr 1000 ------- 2 1.0 2.0 0 0
- 0.1 1 2 cbr 1000 ------- 2 1.0 2.0 0 0
+ 0.108 1 2 cbr 1000 ------- 2 1.0 2.0 1 1
- 0.108 1 2 cbr 1000 ------- 2 1.0 2.0 1 1
r 0.1108 1 2 cbr 1000 ------- 2 1.0 2.0 0 0
+ 0.116 1 2 cbr 1000 ------- 2 1.0 2.0 2 2
- 0.116 1 2 cbr 1000 ------- 2 1.0 2.0 2 2
r 0.1188 1 2 cbr 1000 ------- 2 1.0 2.0 1 1
+ 0.124 1 2 cbr 1000 ------- 2 1.0 2.0 3 3
- 0.124 1 2 cbr 1000 ------- 2 1.0 2.0 3 3
r 0.1268 1 2 cbr 1000 ------- 2 1.0 2.0 2 2
+ 0.132 1 2 cbr 1000 ------- 2 1.0 2.0 4 4
- 0.132 1 2 cbr 1000 ------- 2 1.0 2.0 4 4
r 0.1348 1 2 cbr 1000 ------- 2 1.0 2.0 3 3
+ 0.14 1 2 cbr 1000 ------- 2 1.0 2.0 5 5
- 0.14 1 2 cbr 1000 ------- 2 1.0 2.0 5 5
r 0.1428 1 2 cbr 1000 ------- 2 1.0 2.0 4 4
+ 0.148 1 2 cbr 1000 ------- 2 1.0 2.0 6 6
- 0.148 1 2 cbr 1000 ------- 2 1.0 2.0 6 6
r 0.1508 1 2 cbr 1000 ------- 2 1.0 2.0 5 5
+ 0.156 1 2 cbr 1000 ------- 2 1.0 2.0 7 7
- 0.156 1 2 cbr 1000 ------- 2 1.0 2.0 7 7
r 0.1588 1 2 cbr 1000 ------- 2 1.0 2.0 6 6
+ 0.164 1 2 cbr 1000 ------- 2 1.0 2.0 8 8
- 0.164 1 2 cbr 1000 ------- 2 1.0 2.0 8 8
r 0.1668 1 2 cbr 1000 ------- 2 1.0 2.0 7 7
+ 0.172 1 2 cbr 1000 ------- 2 1.0 2.0 9 9
- 0.172 1 2 cbr 1000 ------- 2 1.0 2.0 9 9
r 0.1748 1 2 cbr 1000 ------- 2 1.0 2.0 8 8
+ 0.18 1 2 cbr 1000 ------- 2 1.0 2.0 10 10
- 0.18 1 2 cbr 1000 ------- 2 1.0 2.0 10 10
r 0.1828 1 2 cbr 1000 ------- 2 1.0 2.0 9 9
+ 0.188 1 2 cbr 1000 ------- 2 1.0 2.0 11 11
- 0.188 1 2 cbr 1000 ------- 2 1.0 2.0 11 11
r 0.1908 1 2 cbr 1000 ------- 2 1.0 2.0 10 10
+ 0.196 1 2 cbr 1000 ------- 2 1.0 2.0 12 12
- 0.196 1 2 cbr 1000 ------- 2 1.0 2.0 12 12
r 0.1988 1 2 cbr 1000 ------- 2 1.0 2.0 11 11
+ 0.204 1 2 cbr 1000 ------- 2 1.0 2.0 13 13
- 0.204 1 2 cbr 1000 ------- 2 1.0 2.0 13 13
r 0.2068 1 2 cbr 1000 ------- 2 1.0 2.0 12 12
+ 0.212 1 2 cbr 1000 ------- 2 1.0 2.0 14 14
- 0.212 1 2 cbr 1000 ------- 2 1.0 2.0 14 14
r 0.2148 1 2 cbr 1000 ------- 2 1.0 2.0 13 13
+ 0.22 1 2 cbr 1000 ------- 2 1.0 2.0 15 15
- 0.22 1 2 cbr 1000 ------- 2 1.0 2.0 15 15
r 0.2228 1 2 cbr 1000 ------- 2 1.0 2.0 14 14
+ 0.228 1 2 cbr 1000 ------- 2 1.0 2.0 16 16
- 0.228 1 2 cbr 1000 ------- 2 1.0 2.0 16 16
r 0.2308 1 2 cbr 1000 ------- 2 1.0 2.0 15 15
+ 0.236 1 2 cbr 1000 ------- 2 1.0 2.0 17 17
- 0.236 1 2 cbr 1000 ------- 2 1.0 2.0 17 17
r 0.2388 1 2 cbr 1000 ------- 2 1.0 2.0 16 16
+ 0.244 1 2 cbr 1000 ------- 2 1.0 2.0 18 18
- 0.244 1 2 cbr 1000 ------- 2 1.0 2.0 18 18
r 0.2468 1 2 cbr 1000 ------- 2 1.0 2.0 17 17
+ 0.252 1 2 cbr 1000 ------- 2 1.0 2.0 19 19
- 0.252 1 2 cbr 1000 ------- 2 1.0 2.0 19 19
r 0.2548 1 2 cbr 1000 ------- 2 1.0 2.0 18 18
+ 0.26 1 2 cbr 1000 ------- 2 1.0 2.0 20 20
- 0.26 1 2 cbr 1000 ------- 2 1.0 2.0 20 20
r 0.2628 1 2 cbr 1000 ------- 2 1.0 2.0 19 19
+ 0.268 1 2 cbr 1000 ------- 2 1.0 2.0 21 21
- 0.268 1 2 cbr 1000 ------- 2 1.0 2.0 21 21
r 0.2708 1 2 cbr 1000 ------- 2 1.0 2.0 20 20
+ 0.276 1 2 cbr 1000 ------- 2 1.0 2.0 22 22
- 0.276 1 2 cbr 1000 ------- 2 1.0 2.0 22 22
r 0.2788 1 2 cbr 1000 ------- 2 1.0 2.0 21 21
+ 0.284 1 2 cbr 1000 ------- 2 1.0 2.0 23 23
- 0.284 1 2 cbr 1000 ------- 2 1.0 2.0 23 23
r 0.2868 1 2 cbr 1000 ------- 2 1.0 2.0 22 22
+ 0.292 1 2 cbr 1000 ------- 2 1.0 2.0 24 24
- 0.292 1 2 cbr 1000 ------- 2 1.0 2.0 24 24
r 0.2948 1 2 cbr 1000 ------- 2 1.0 2.0 23 23
+ 0.3 1 2 cbr 1000 ------- 2 1.0 2.0 25 25
- 0.3 1 2 cbr 1000 ------- 2 1.0 2.0 25 25
r 0.3028 1 2 cbr 1000 ------- 2 1.0 2.0 24 24
+ 0.308 1 2 cbr 1000 ------- 2 1.0 2.0 26 26
- 0.308 1 2 cbr 1000 ------- 2 1.0 2.0 26 26
r 0.3108 1 2 cbr 1000 ------- 2 1.0 2.0 25 25
+ 0.316 1 2 cbr 1000 ------- 2 1.0 2.0 27 27
- 0.316 1 2 cbr 1000 ------- 2 1.0 2.0 27 27
r 0.3188 1 2 cbr 1000 ------- 2 1.0 2.0 26 26
+ 0.324 1 2 cbr 1000 ------- 2 1.0 2.0 28 28
- 0.324 1 2 cbr 1000 ------- 2 1.0 2.0 28 28
r 0.3268 1 2 cbr 1000 ------- 2 1.0 2.0 27 27
+ 0.332 1 2 cbr 1000 ------- 2 1.0 2.0 29 29
- 0.332 1 2 cbr 1000 ------- 2 1.0 2.0 29 29
r 0.3348 1 2 cbr 1000 ------- 2 1.0 2.0 28 28
+ 0.34 1 2 cbr 1000 ------- 2 1.0 2.0 30 30
- 0.34 1 2 cbr 1000 ------- 2 1.0 2.0 30 30
r 0.3428 1 2 cbr 1000 ------- 2 1.0 2.0 29 29
+ 0.348 1 2 cbr 1000 ------- 2 1.0 2.0 31 31
- 0.348 1 2 cbr 1000 ------- 2 1.0 2.0 31 31
r 0.3508 1 2 cbr 1000 ------- 2 1.0 2.0 30 30
+ 0.356 1 2 cbr 1000 ------- 2 1.0 2.0 32 32
- 0.356 1 2 cbr 1000 ------- 2 1.0 2.0 32 32
r 0.3588 1 2 cbr 1000 ------- 2 1.0 2.0 31 31
+ 0.364 1 2 cbr 1000 ------- 2 1.0 2.0 33 33
- 0.364 1 2 cbr 1000 ------- 2 1.0 2.0 33 33
r 0.3668 1 2 cbr 1000 ------- 2 1.0 2.0 32 32
+ 0.372 1 2 cbr 1000 ------- 2 1.0 2.0 34 34
- 0.372 1 2 cbr 1000 ------- 2 1.0 2.0 34 34
r 0.3748 1 2 cbr 1000 ------- 2 1.0 2.0 33 33
+ 0.38 1 2 cbr 1000 ------- 2 1.0 2.0 35 35
- 0.38 1 2 cbr 1000 ------- 2 1.0 2.0 35 35
r 0.3828 1 2 cbr 1000 ------- 2 1.0 2.0 34 34
+ 0.388 1 2 cbr 1000 ------- 2 1.0 2.0 36 36
- 0.388 1 2 cbr 1000 ------- 2 1.0 2.0 36 36
r 0.3908 1 2 cbr 1000 ------- 2 1.0 2.0 35 35
+ 0.396 1 2 cbr 1000 ------- 2 1.0 2.0 37 37
- 0.396 1 2 cbr 1000 ------- 2 1.0 2.0 37 37
r 0.3988 1 2 cbr 1000 ------- 2 1.0 2.0 36 36
+ 0.404 1 2 cbr 1000 ------- 2 1.0 2.0 38 38
- 0.404 1 2 cbr 1000 ------- 2 1.0 2.0 38 38
r 0.4068 1 2 cbr 1000 ------- 2 1.0 2.0 37 37
+ 0.412 1 2 cbr 1000 ------- 2 1.0 2.0 39 39
- 0.412 1 2 cbr 1000 ------- 2 1.0 2.0 39 39
r 0.4148 1 2 cbr 1000 ------- 2 1.0 2.0 38 38
+ 0.42 1 2 cbr 1000 ------- 2 1.0 2.0 40 40
- 0.42 1 2 cbr 1000 ------- 2 1.0 2.0 40 40
r 0.4228 1 2 cbr 1000 ------- 2 1.0 2.0 39 39
+ 0.428 1 2 cbr 1000 ------- 2 1.0 2.0 41 41
- 0.428 1 2 cbr 1000 ------- 2 1.0 2.0 41 41
r 0.4308 1 2 cbr 1000 ------- 2 1.0 2.0 40 40
+ 0.436 1 2 cbr 1000 ------- 2 1.0 2.0 42 42
- 0.436 1 2 cbr 1000 ------- 2 1.0 2.0 42 42
r 0.4388 1 2 cbr 1000 ------- 2 1.0 2.0 41 41
+ 0.444 1 2 cbr 1000 ------- 2 1.0 2.0 43 43
- 0.444 1 2 cbr 1000 ------- 2 1.0 2.0 43 43
r 0.4468 1 2 cbr 1000 ------- 2 1.0 2.0 42 42
+ 0.452 1 2 cbr 1000 ------- 2 1.0 2.0 44 44
- 0.452 1 2 cbr 1000 ------- 2 1.0 2.0 44 44
r 0.4548 1 2 cbr 1000 ------- 2 1.0 2.0 43 43
+ 0.46 1 2 cbr 1000 ------- 2 1.0 2.0 45 45
- 0.46 1 2 cbr 1000 ------- 2 1.0 2.0 45 45
r 0.4628 1 2 cbr 1000 ------- 2 1.0 2.0 44 44
+ 0.468 1 2 cbr 1000 ------- 2 1.0 2.0 46 46
- 0.468 1 2 cbr 1000 ------- 2 1.0 2.0 46 46
r 0.4708 1 2 cbr 1000 ------- 2 1.0 2.0 45 45
+ 0.476 1 2 cbr 1000 ------- 2 1.0 2.0 47 47
- 0.476 1 2 cbr 1000 ------- 2 1.0 2.0 47 47
r 0.4788 1 2 cbr 1000 ------- 2 1.0 2.0 46 46
+ 0.484 1 2 cbr 1000 ------- 2 1.0 2.0 48 48
- 0.484 1 2 cbr 1000 ------- 2 1.0 2.0 48 48
r 0.4868 1 2 cbr 1000 ------- 2 1.0 2.0 47 47
+ 0.492 1 2 cbr 1000 ------- 2 1.0 2.0 49 49
- 0.492 1 2 cbr 1000 ------- 2 1.0 2.0 49 49
r 0.4948 1 2 cbr 1000 ------- 2 1.0 2.0 48 48
+ 0.5 0 1 tcp 1000 ------- 1 0.0 3.0 0 50
- 0.5 0 1 tcp 1000 ------- 1 0.0 3.0 0 50
+ 0.5 1 2 cbr 1000 ------- 2 1.0 2.0 50 51
- 0.5 1 2 cbr 1000 ------- 2 1.0 2.0 50 51
r 0.5028 1 2 cbr 1000 ------- 2 1.0 2.0 49 49
+ 0.508 1 2 cbr 1000 ------- 2 1.0 2.0 51 52
- 0.508 1 2 cbr 1000 ------- 2 1.0 2.0 51 52
r 0.5108 0 1 tcp 1000 ------- 1 0.0 3.0 0 50
+ 0.5108 1 2 tcp 1000 ------- 1 0.0 3.0 0 50
- 0.5108 1 2 tcp 1000 ------- 1 0.0 3.0 0 50
r 0.5108 1 2 cbr 1000 ------- 2 1.0 2.0 50 51
+ 0.516 1 2 cbr 1000 ------- 2 1.0 2.0 52 53
- 0.516 1 2 cbr 1000 ------- 2 1.0 2.0 52 53
r 0.5188 1 2 cbr 1000 ------- 2 1.0 2.0 51 52
r 0.5216 1 2 tcp 1000 ------- 1 0.0 3.0 0 50
+ 0.5216 2 3 tcp 1000 ------- 1 0.0 3.0 0 50
- 0.5216 2 3 tcp 1000 ------- 1 0.0 3.0 0 50
+ 0.524 1 2 cbr 1000 ------- 2 1.0 2.0 53 54
- 0.524 1 2 cbr 1000 ------- 2 1.0 2.0 53 54
r 0.5268 1 2 cbr 1000 ------- 2 1.0 2.0 52 53
+ 0.532 1 2 cbr 1000 ------- 2 1.0 2.0 54 55
- 0.532 1 2 cbr 1000 ------- 2 1.0 2.0 54 55
r 0.5324 2 3 tcp 1000 ------- 1 0.0 3.0 0 50
+ 0.5324 3 2 ack 40 ------- 1 3.0 0.0 0 56
- 0.5324 3 2 ack 40 ------- 1 3.0 0.0 0 56
r 0.5348 1 2 cbr 1000 ------- 2 1.0 2.0 53 54
+ 0.54 1 2 cbr 1000 ------- 2 1.0 2.0 55 57
- 0.54 1 2 cbr 1000 ------- 2 1.0 2.0 55 57
r 0.542432 3 2 ack 40 ------- 1 3.0 0.0 0 56
+ 0.542432 2 1 ack 40 ------- 1 3.0 0.0 0 56
- 0.542432 2 1 ack 40 ------- 1 3.0 0.0 0 56
r 0.5428 1 2 cbr 1000 ------- 2 1.0 2.0 54 55
+ 0.548 1 2 cbr 1000 ------- 2 1.0 2.0 56 58
- 0.548 1 2 cbr 1000 ------- 2 1.0 2.0 56 58
r 0.5508 1 2 cbr 1000 ------- 2 1.0 2.0 55 57
r 0.552464 2 1 ack 40 ------- 1 3.0 0.0 0 56
+ 0.552464 1 0 ack 40 ------- 1 3.0 0.0 0 56
- 0.552464 1 0 ack 40 ------- 1 3.0 0.0 0 56
+ 0.556 1 2 cbr 1000 ------- 2 1.0 2.0 57 59
- 0.556 1 2 cbr 1000 ------- 2 1.0 2.0 57 59
r 0.5588 1 2 cbr 1000 ------- 2 1.0 2.0 56 58
r 0.562496 1 0 ack 40 ------- 1 3.0 0.0 0 56
+ 0.562496 0 1 tcp 1000 ------- 1 0.0 3.0 1 60
- 0.562496 0 1 tcp 1000 ------- 1 0.0 3.0 1 60
+ 0.564 1 2 cbr 1000 ------- 2 1.0 2.0 58 61
- 0.564 1 2 cbr 1000 ------- 2 1.0 2.0 58 61
r 0.5668 1 2 cbr 1000 ------- 2 1.0 2.0 57 59
+ 0.572 1 2 cbr 1000 ------- 2 1.0 2.0 59 62
- 0.572 1 2 cbr 1000 ------- 2 1.0 2.0 59 62
r 0.573296 0 1 tcp 1000 ------- 1 0.0 3.0 1 60
+ 0.573296 1 2 tcp 1000 ------- 1 0.0 3.0 1 60
- 0.573296 1 2 tcp 1000 ------- 1 0.0 3.0 1 60
r 0.5748 1 2 cbr 1000 ------- 2 1.0 2.0 58 61
+ 0.58 1 2 cbr 1000 ------- 2 1.0 2.0 60 63
- 0.58 1 2 cbr 1000 ------- 2 1.0 2.0 60 63
r 0.5828 1 2 cbr 1000 ------- 2 1.0 2.0 59 62
r 0.584096 1 2 tcp 1000 ------- 1 0.0 3.0 1 60
+ 0.584096 2 3 tcp 1000 ------- 1 0.0 3.0 1 60
- 0.584096 2 3 tcp 1000 ------- 1 0.0 3.0 1 60
+ 0.588 1 2 cbr 1000 ------- 2 1.0 2.0 61 64
- 0.588 1 2 cbr 1000 ------- 2 1.0 2.0 61 64
r 0.5908 1 2 cbr 1000 ------- 2 1.0 2.0 60 63
r 0.594896 2 3 tcp 1000 ------- 1 0.0 3.0 1 60
+ 0.594896 3 2 ack 40 ------- 1 3.0 0.0 1 65
- 0.594896 3 2 ack 40 ------- 1 3.0 0.0 1 65
+ 0.596 1 2 cbr 1000 ------- 2 1.0 2.0 62 66
- 0.596 1 2 cbr 1000 ------- 2 1.0 2.0 62 66
r 0.5988 1 2 cbr 1000 ------- 2 1.0 2.0 61 64
+ 0.604 1 2 cbr 1000 ------- 2 1.0 2.0 63 67
- 0.604 1 2 cbr 1000 ------- 2 1.0 2.0 63 67
r 0.604928 3 2 ack 40 ------- 1 3.0 0.0 1 65
+ 0.604928 2 1 ack 40 ------- 1 3.0 0.0 1 65
- 0.604928 2 1 ack 40 ------- 1 3.0 0.0 1 65
r 0.6068 1 2 cbr 1000 ------- 2 1.0 2.0 62 66
+ 0.612 1 2 cbr 1000 ------- 2 1.0 2.0 64 68
- 0.612 1 2 cbr 1000 ------- 2 1.0 2.0 64 68
r 0.6148 1 2 cbr 1000 ------- 2 1.0 2.0 63 67
r 0.61496 2 1 ack 40 ------- 1 3.0 0.0 1 65
+ 0.61496 1 0 ack 40 ------- 1 3.0 0.0 1 65
- 0.61496 1 0 ack 40 ------- 1 3.0 0.0 1 65
+ 0.62 1 2 cbr 1000 ------- 2 1.0 2.0 65 69
- 0.62 1 2 cbr 1000 ------- 2 1.0 2.0 65 69
r 0.6228 1 2 cbr 1000 ------- 2 1.0 2.0 64 68
r 0.624992 1 0 ack 40 ------- 1 3.0 0.0 1 65
+ 0.624992 0 1 tcp 1000 ------- 1 0.0 3.0 2 70
- 0.624992 0 1 tcp 1000 ------- 1 0.0 3.0 2 70
+ 0.624992 0 1 tcp 1000 ------- 1 0.0 3.0 3 71
+ 0.624992 0 1 tcp 1000 ------- 1 0.0 3.0 4 72
- 0.625792 0 1 tcp 1000 ------- 1 0.0 3.0 3 71
- 0.626592 0 1 tcp 1000 ------- 1 0.0 3.0 4 72
+ 0.628 1 2 cbr 1000 ------- 2 1.0 2.0 66 73
- 0.628 1 2 cbr 1000 ------- 2 1.0 2.0 66 73
r 0.6308 1 2 cbr 1000 ------- 2 1.0 2.0 65 69
r 0.635792 0 1 tcp 1000 ------- 1 0.0 3.0 2 70
+ 0.635792 1 2 tcp 1000 ------- 1 0.0 3.0 2 70
- 0.635792 1 2 tcp 1000 ------- 1 0.0 3.0 2 70
+ 0.636 1 2 cbr 1000 ------- 2 1.0 2.0 67 74
r 0.636592 0 1 tcp 1000 ------- 1 0.0 3.0 3 71
+ 0.636592 1 2 tcp 1000 ------- 1 0.0 3.0 3 71
- 0.636592 1 2 cbr 1000 ------- 2 1.0 2.0 67 74
r 0.637392 0 1 tcp 1000 ------- 1 0.0 3.0 4 72
+ 0.637392 1 2 tcp 1000 ------- 1 0.0 3.0 4 72
- 0.637392 1 2 tcp 1000 ------- 1 0.0 3.0 3 71
- 0.638192 1 2 tcp 1000 ------- 1 0.0 3.0 4 72
r 0.6388 1 2 cbr 1000 ------- 2 1.0 2.0 66 73
+ 0.644 1 2 cbr 1000 ------- 2 1.0 2.0 68 75
- 0.644 1 2 cbr 1000 ------- 2 1.0 2.0 68 75
r 0.646592 1 2 tcp 1000 ------- 1 0.0 3.0 2 70
+ 0.646592 2 3 tcp 1000 ------- 1 0.0 3.0 2 70
- 0.646592 2 3 tcp 1000 ------- 1 0.0 3.0 2 70
r 0.647392 1 2 cbr 1000 ------- 2 1.0 2.0 67 74
r 0.648192 1 2 tcp 1000 ------- 1 0.0 3.0 3 71
+ 0.648192 2 3 tcp 1000 ------- 1 0.0 3.0 3 71
- 0.648192 2 3 tcp 1000 ------- 1 0.0 3.0 3 71
r 0.648992 1 2 tcp 1000 ------- 1 0.0 3.0 4 72
+ 0.648992 2 3 tcp 1000 ------- 1 0.0 3.0 4 72
- 0.648992 2 3 tcp 1000 ------- 1 0.0 3.0 4 72
+ 0.652 1 2 cbr 1000 ------- 2 1.0 2.0 69 76
- 0.652 1 2 cbr 1000 ------- 2 1.0 2.0 69 76
r 0.6548 1 2 cbr 1000 ------- 2 1.0 2.0 68 75
r 0.657392 2 3 tcp 1000 ------- 1 0.0 3.0 2 70
+ 0.657392 3 2 ack 40 ------- 1 3.0 0.0 2 77
- 0.657392 3 2 ack 40 ------- 1 3.0 0.0 2 77
r 0.658992 2 3 tcp 1000 ------- 1 0.0 3.0 3 71
+ 0.658992 3 2 ack 40 ------- 1 3.0 0.0 3 78
- 0.658992 3 2 ack 40 ------- 1 3.0 0.0 3 78
r 0.659792 2 3 tcp 1000 ------- 1 0.0 3.0 4 72
+ 0.659792 3 2 ack 40 ------- 1 3.0 0.0 4 79
- 0.659792 3 2 ack 40 ------- 1 3.0 0.0 4 79
+ 0.66 1 2 cbr 1000 ------- 2 1.0 2.0 70 80
- 0.66 1 2 cbr 1000 ------- 2 1.0 2.0 70 80
r 0.6628 1 2 cbr 1000 ------- 2 1.0 2.0 69 76
r 0.667424 3 2 ack 40 ------- 1 3.0 0.0 2 77
+ 0.667424 2 1 ack 40 ------- 1 3.0 0.0 2 77
- 0.667424 2 1 ack 40 ------- 1 3.0 0.0 2 77
+ 0.668 1 2 cbr 1000 ------- 2 1.0 2.0 71 81
- 0.668 1 2 cbr 1000 ------- 2 1.0 2.0 71 81
r 0.669024 3 2 ack 40 ------- 1 3.0 0.0 3 78
+ 0.669024 2 1 ack 40 ------- 1 3.0 0.0 3 78
- 0.669024 2 1 ack 40 ------- 1 3.0 0.0 3 78
r 0.669824 3 2 ack 40 ------- 1 3.0 0.0 4 79
+ 0.669824 2 1 ack 40 ------- 1 3.0 0.0 4 79
- 0.669824 2 1 ack 40 ------- 1 3.0 0.0 4 79
r 0.6708 1 2 cbr 1000 ------- 2 1.0 2.0 70 80
+ 0.676 1 2 cbr 1000 ------- 2 1.0 2.0 72 82
- 0.676 1 2 cbr 1000 ------- 2 1.0 2.0 72 82
r 0.677456 2 1 ack 40 ------- 1 3.0 0.0 2 77
+ 0.677456 1 0 ack 40 ------- 1 3.0 0.0 2 77
- 0.677456 1 0 ack 40 ------- 1 3.0 0.0 2 77
r 0.6788 1 2 cbr 1000 ------- 2 1.0 2.0 71 81
r 0.679056 2 1 ack 40 ------- 1 3.0 0.0 3 78
+ 0.679056 1 0 ack 40 ------- 1 3.0 0.0 3 78
- 0.679056 1 0 ack 40 ------- 1 3.0 0.0 3 78
r 0.679856 2 1 ack 40 ------- 1 3.0 0.0 4 79
+ 0.679856 1 0 ack 40 ------- 1 3.0 0.0 4 79
- 0.679856 1 0 ack 40 ------- 1 3.0 0.0 4 79
+ 0.684 1 2 cbr 1000 ------- 2 1.0 2.0 73 83
- 0.684 1 2 cbr 1000 ------- 2 1.0 2.0 73 83
r 0.6868 1 2 cbr 1000 ------- 2 1.0 2.0 72 82
r 0.687488 1 0 ack 40 ------- 1 3.0 0.0 2 77
+ 0.687488 0 1 tcp 1000 ------- 1 0.0 3.0 5 84
- 0.687488 0 1 tcp 1000 ------- 1 0.0 3.0 5 84
r 0.689088 1 0 ack 40 ------- 1 3.0 0.0 3 78
+ 0.689088 0 1 tcp 1000 ------- 1 0.0 3.0 6 85
- 0.689088 0 1 tcp 1000 ------- 1 0.0 3.0 6 85
r 0.689888 1 0 ack 40 ------- 1 3.0 0.0 4 79
+ 0.689888 0 1 tcp 1000 ------- 1 0.0 3.0 7 86
- 0.689888 0 1 tcp 1000 ------- 1 0.0 3.0 7 86
+ 0.692 1 2 cbr 1000 ------- 2 1.0 2.0 74 87
- 0.692 1 2 cbr 1000 ------- 2 1.0 2.0 74 87
r 0.6948 1 2 cbr 1000 ------- 2 1.0 2.0 73 83
r 0.698288 0 1 tcp 1000 ------- 1 0.0 3.0 5 84
+ 0.698288 1 2 tcp 1000 ------- 1 0.0 3.0 5 84
- 0.698288 1 2 tcp 1000 ------- 1 0.0 3.0 5 84
r 0.699888 0 1 tcp 1000 ------- 1 0.0 3.0 6 85
+ 0.699888 1 2 tcp 1000 ------- 1 0.0 3.0 6 85
- 0.699888 1 2 tcp 1000 ------- 1 0.0 3.0 6 85
+ 0.7 1 2 cbr 1000 ------- 2 1.0 2.0 75 88
r 0.700688 0 1 tcp 1000 ------- 1 0.0 3.0 7 86
+ 0.700688 1 2 tcp 1000 ------- 1 0.0 3.0 7 86
- 0.700688 1 2 cbr 1000 ------- 2 1.0 2.0 75 88
- 0.701488 1 2 tcp 1000 ------- 1 0.0 3.0 7 86
r 0.7028 1 2 cbr 1000 ------- 2 1.0 2.0 74 87
+ 0.708 1 2 cbr 1000 ------- 2 1.0 2.0 76 89
- 0.708 1 2 cbr 1000 ------- 2 1.0 2.0 76 89
r 0.709088 1 2 tcp 1000 ------- 1 0.0 3.0 5 84
+ 0.709088 2 3 tcp 1000 ------- 1 0.0 3.0 5 84
- 0.709088 2 3 tcp 1000 ------- 1 0.0 3.0 5 84
r 0.710688 1 2 tcp 1000 ------- 1 0.0 3.0 6 85
+ 0.710688 2 3 tcp 1000 ------- 1 0.0 3.0 6 85
- 0.710688 2 3 tcp 1000 ------- 1 0.0 3.0 6 85
r 0.711488 1 2 cbr 1000 ------- 2 1.0 2.0 75 88
r 0.712288 1 2 tcp 1000 ------- 1 0.0 3.0 7 86
+ 0.712288 2 3 tcp 1000 ------- 1 0.0 3.0 7 86
- 0.712288 2 3 tcp 1000 ------- 1 0.0 3.0 7 86
+ 0.716 1 2 cbr 1000 ------- 2 1.0 2.0 77 90
- 0.716 1 2 cbr 1000 ------- 2 1.0 2.0 77 90
r 0.7188 1 2 cbr 1000 ------- 2 1.0 2.0 76 89
r 0.719888 2 3 tcp 1000 ------- 1 0.0 3.0 5 84
+ 0.719888 3 2 ack 40 ------- 1 3.0 0.0 5 91
- 0.719888 3 2 ack 40 ------- 1 3.0 0.0 5 91
r 0.721488 2 3 tcp 1000 ------- 1 0.0 3.0 6 85
+ 0.721488 3 2 ack 40 ------- 1 3.0 0.0 6 92
- 0.721488 3 2 ack 40 ------- 1 3.0 0.0 6 92
r 0.723088 2 3 tcp 1000 ------- 1 0.0 3.0 7 86
+ 0.723088 3 2 ack 40 ------- 1 3.0 0.0 7 93
- 0.723088 3 2 ack 40 ------- 1 3.0 0.0 7 93
+ 0.724 1 2 cbr 1000 ------- 2 1.0 2.0 78 94
- 0.724 1 2 cbr 1000 ------- 2 1.0 2.0 78 94
r 0.7268 1 2 cbr 1000 ------- 2 1.0 2.0 77 90
r 0.72992 3 2 ack 40 ------- 1 3.0 0.0 5 91
+ 0.72992 2 1 ack 40 ------- 1 3.0 0.0 5 91
- 0.72992 2 1 ack 40 ------- 1 3.0 0.0 5 91
r 0.73152 3 2 ack 40 ------- 1 3.0 0.0 6 92
+ 0.73152 2 1 ack 40 ------- 1 3.0 0.0 6 92
- 0.73152 2 1 ack 40 ------- 1 3.0 0.0 6 92
+ 0.732 1 2 cbr 1000 ------- 2 1.0 2.0 79 95
- 0.732 1 2 cbr 1000 ------- 2 1.0 2.0 79 95
r 0.73312 3 2 ack 40 ------- 1 3.0 0.0 7 93
+ 0.73312 2 1 ack 40 ------- 1 3.0 0.0 7 93
- 0.73312 2 1 ack 40 ------- 1 3.0 0.0 7 93
r 0.7348 1 2 cbr 1000 ------- 2 1.0 2.0 78 94
r 0.739952 2 1 ack 40 ------- 1 3.0 0.0 5 91
+ 0.739952 1 0 ack 40 ------- 1 3.0 0.0 5 91
- 0.739952 1 0 ack 40 ------- 1 3.0 0.0 5 91
+ 0.74 1 2 cbr 1000 ------- 2 1.0 2.0 80 96
- 0.74 1 2 cbr 1000 ------- 2 1.0 2.0 80 96
r 0.741552 2 1 ack 40 ------- 1 3.0 0.0 6 92
+ 0.741552 1 0 ack 40 ------- 1 3.0 0.0 6 92
- 0.741552 1 0 ack 40 ------- 1 3.0 0.0 6 92
r 0.7428 1 2 cbr 1000 ------- 2 1.0 2.0 79 95
r 0.743152 2 1 ack 40 ------- 1 3.0 0.0 7 93
+ 0.743152 1 0 ack 40 ------- 1 3.0 0.0 7 93
- 0.743152 1 0 ack 40 ------- 1 3.0 0.0 7 93
+ 0.748 1 2 cbr 1000 ------- 2 1.0 2.0 81 97
- 0.748 1 2 cbr 1000 ------- 2 1.0 2.0 81 97
r 0.749984 1 0 ack 40 ------- 1 3.0 0.0 5 91
+ 0.749984 0 1 tcp 1000 ------- 1 0.0 3.0 8 98
- 0.749984 0 1 tcp 1000 ------- 1 0.0 3.0 8 98
+ 0.749984 0 1 tcp 1000 ------- 1 0.0 3.0 9 99
- 0.750784 0 1 tcp 1000 ------- 1 0.0 3.0 9 99
r 0.7508 1 2 cbr 1000 ------- 2 1.0 2.0 80 96
r 0.751584 1 0 ack 40 ------- 1 3.0 0.0 6 92
+ 0.751584 0 1 tcp 1000 ------- 1 0.0 3.0 10 100
+ 0.751584 0 1 tcp 1000 ------- 1 0.0 3.0 11 101
- 0.751584 0 1 tcp 1000 ------- 1 0.0 3.0 10 100
- 0.752384 0 1 tcp 1000 ------- 1 0.0 3.0 11 101
r 0.753184 1 0 ack 40 ------- 1 3.0 0.0 7 93
+ 0.753184 0 1 tcp 1000 ------- 1 0.0 3.0 12 102
+ 0.753184 0 1 tcp 1000 ------- 1 0.0 3.0 13 103
- 0.753184 0 1 tcp 1000 ------- 1 0.0 3.0 12 102
- 0.753984 0 1 tcp 1000 ------- 1 0.0 3.0 13 103
+ 0.756 1 2 cbr 1000 ------- 2 1.0 2.0 82 104
- 0.756 1 2 cbr 1000 ------- 2 1.0 2.0 82 104
r 0.7588 1 2 cbr 1000 ------- 2 1.0 2.0 81 97
r 0.760784 0 1 tcp 1000 ------- 1 0.0 3.0 8 98
+ 0.760784 1 2 tcp 1000 ------- 1 0.0 3.0 8 98
- 0.760784 1 2 tcp 1000 ------- 1 0.0 3.0 8 98
r 0.761584 0 1 tcp 1000 ------- 1 0.0 3.0 9 99
+ 0.761584 1 2 tcp 1000 ------- 1 0.0 3.0 9 99
- 0.761584 1 2 tcp 1000 ------- 1 0.0 3.0 9 99
r 0.762384 0 1 tcp 1000 ------- 1 0.0 3.0 10 100
+ 0.762384 1 2 tcp 1000 ------- 1 0.0 3.0 10 100
- 0.762384 1 2 tcp 1000 ------- 1 0.0 3.0 10 100
r 0.763184 0 1 tcp 1000 ------- 1 0.0 3.0 11 101
+ 0.763184 1 2 tcp 1000 ------- 1 0.0 3.0 11 101
- 0.763184 1 2 tcp 1000 ------- 1 0.0 3.0 11 101
r 0.763984 0 1 tcp 1000 ------- 1 0.0 3.0 12 102
+ 0.763984 1 2 tcp 1000 ------- 1 0.0 3.0 12 102
- 0.763984 1 2 tcp 1000 ------- 1 0.0 3.0 12 102
+ 0.764 1 2 cbr 1000 ------- 2 1.0 2.0 83 105
r 0.764784 0 1 tcp 1000 ------- 1 0.0 3.0 13 103
+ 0.764784 1 2 tcp 1000 ------- 1 0.0 3.0 13 103
- 0.764784 1 2 cbr 1000 ------- 2 1.0 2.0 83 105
- 0.765584 1 2 tcp 1000 ------- 1 0.0 3.0 13 103
r 0.7668 1 2 cbr 1000 ------- 2 1.0 2.0 82 104
r 0.771584 1 2 tcp 1000 ------- 1 0.0 3.0 8 98
+ 0.771584 2 3 tcp 1000 ------- 1 0.0 3.0 8 98
- 0.771584 2 3 tcp 1000 ------- 1 0.0 3.0 8 98
+ 0.772 1 2 cbr 1000 ------- 2 1.0 2.0 84 106
- 0.772 1 2 cbr 1000 ------- 2 1.0 2.0 84 106
r 0.772384 1 2 tcp 1000 ------- 1 0.0 3.0 9 99
+ 0.772384 2 3 tcp 1000 ------- 1 0.0 3.0 9 99
- 0.772384 2 3 tcp 1000 ------- 1 0.0 3.0 9 99
r 0.773184 1 2 tcp 1000 ------- 1 0.0 3.0 10 100
+ 0.773184 2 3 tcp 1000 ------- 1 0.0 3.0 10 100
- 0.773184 2 3 tcp 1000 ------- 1 0.0 3.0 10 100
r 0.773984 1 2 tcp 1000 ------- 1 0.0 3.0 11 101
+ 0.773984 2 3 tcp 1000 ------- 1 0.0 3.0 11 101
- 0.773984 2 3 tcp 1000 ------- 1 0.0 3.0 11 101
r 0.774784 1 2 tcp 1000 ------- 1 0.0 3.0 12 102
+ 0.774784 2 3 tcp 1000 ------- 1 0.0 3.0 12 102
- 0.774784 2 3 tcp 1000 ------- 1 0.0 3.0 12 102
r 0.775584 1 2 cbr 1000 ------- 2 1.0 2.0 83 105
r 0.776384 1 2 tcp 1000 ------- 1 0.0 3.0 13 103
+ 0.776384 2 3 tcp 1000 ------- 1 0.0 3.0 13 103
- 0.776384 2 3 tcp 1000 ------- 1 0.0 3.0 13 103
+ 0.78 1 2 cbr 1000 ------- 2 1.0 2.0 85 107
- 0.78 1 2 cbr 1000 ------- 2 1.0 2.0 85 107
r 0.782384 2 3 tcp 1000 ------- 1 0.0 3.0 8 98
+ 0.782384 3 2 ack 40 ------- 1 3.0 0.0 8 108
- 0.782384 3 2 ack 40 ------- 1 3.0 0.0 8 108
r 0.7828 1 2 cbr 1000 ------- 2 1.0 2.0 84 106
r 0.783184 2 3 tcp 1000 ------- 1 0.0 3.0 9 99
+ 0.783184 3 2 ack 40 ------- 1 3.0 0.0 9 109
- 0.783184 3 2 ack 40 ------- 1 3.0 0.0 9 109
r 0.783984 2 3 tcp 1000 ------- 1 0.0 3.0 10 100
+ 0.783984 3 2 ack 40 ------- 1 3.0 0.0 10 110
- 0.783984 3 2 ack 40 ------- 1 3.0 0.0 10 110
r 0.784784 2 3 tcp 1000 ------- 1 0.0 3.0 11 101
+ 0.784784 3 2 ack 40 ------- 1 3.0 0.0 11 111
- 0.784784 3 2 ack 40 ------- 1 3.0 0.0 11 111
r 0.785584 2 3 tcp 1000 ------- 1 0.0 3.0 12 102
+ 0.785584 3 2 ack 40 ------- 1 3.0 0.0 12 112
- 0.785584 3 2 ack 40 ------- 1 3.0 0.0 12 112
r 0.787184 2 3 tcp 1000 ------- 1 0.0 3.0 13 103
+ 0.787184 3 2 ack 40 ------- 1 3.0 0.0 13 113
- 0.787184 3 2 ack 40 ------- 1 3.0 0.0 13 113
+ 0.788 1 2 cbr 1000 ------- 2 1.0 2.0 86 114
- 0.788 1 2 cbr 1000 ------- 2 1.0 2.0 86 114
r 0.7908 1 2 cbr 1000 ------- 2 1.0 2.0 85 107
r 0.792416 3 2 ack 40 ------- 1 3.0 0.0 8 108
+ 0.792416 2 1 ack 40 ------- 1 3.0 0.0 8 108
- 0.792416 2 1 ack 40 ------- 1 3.0 0.0 8 108
r 0.793216 3 2 ack 40 ------- 1 3.0 0.0 9 109
+ 0.793216 2 1 ack 40 ------- 1 3.0 0.0 9 109
- 0.793216 2 1 ack 40 ------- 1 3.0 0.0 9 109
r 0.794016 3 2 ack 40 ------- 1 3.0 0.0 10 110
+ 0.794016 2 1 ack 40 ------- 1 3.0 0.0 10 110
- 0.794016 2 1 ack 40 ------- 1 3.0 0.0 10 110
r 0.794816 3 2 ack 40 ------- 1 3.0 0.0 11 111
+ 0.794816 2 1 ack 40 ------- 1 3.0 0.0 11 111
- 0.794816 2 1 ack 40 ------- 1 3.0 0.0 11 111
r 0.795616 3 2 ack 40 ------- 1 3.0 0.0 12 112
+ 0.795616 2 1 ack 40 ------- 1 3.0 0.0 12 112
- 0.795616 2 1 ack 40 ------- 1 3.0 0.0 12 112
+ 0.796 1 2 cbr 1000 ------- 2 1.0 2.0 87 115
- 0.796 1 2 cbr 1000 ------- 2 1.0 2.0 87 115
r 0.797216 3 2 ack 40 ------- 1 3.0 0.0 13 113
+ 0.797216 2 1 ack 40 ------- 1 3.0 0.0 13 113
- 0.797216 2 1 ack 40 ------- 1 3.0 0.0 13 113
r 0.7988 1 2 cbr 1000 ------- 2 1.0 2.0 86 114
r 0.802448 2 1 ack 40 ------- 1 3.0 0.0 8 108
+ 0.802448 1 0 ack 40 ------- 1 3.0 0.0 8 108
- 0.802448 1 0 ack 40 ------- 1 3.0 0.0 8 108
r 0.803248 2 1 ack 40 ------- 1 3.0 0.0 9 109
+ 0.803248 1 0 ack 40 ------- 1 3.0 0.0 9 109
- 0.803248 1 0 ack 40 ------- 1 3.0 0.0 9 109
+ 0.804 1 2 cbr 1000 ------- 2 1.0 2.0 88 116
- 0.804 1 2 cbr 1000 ------- 2 1.0 2.0 88 116
r 0.804048 2 1 ack 40 ------- 1 3.0 0.0 10 110
+ 0.804048 1 0 ack 40 ------- 1 3.0 0.0 10 110
- 0.804048 1 0 ack 40 ------- 1 3.0 0.0 10 110
r 0.804848 2 1 ack 40 ------- 1 3.0 0.0 11 111
+ 0.804848 1 0 ack 40 ------- 1 3.0 0.0 11 111
- 0.804848 1 0 ack 40 ------- 1 3.0 0.0 11 111
r 0.805648 2 1 ack 40 ------- 1 3.0 0.0 12 112
+ 0.805648 1 0 ack 40 ------- 1 3.0 0.0 12 112
- 0.805648 1 0 ack 40 ------- 1 3.0 0.0 12 112
r 0.8068 1 2 cbr 1000 ------- 2 1.0 2.0 87 115
r 0.807248 2 1 ack 40 ------- 1 3.0 0.0 13 113
+ 0.807248 1 0 ack 40 ------- 1 3.0 0.0 13 113
- 0.807248 1 0 ack 40 ------- 1 3.0 0.0 13 113
+ 0.812 1 2 cbr 1000 ------- 2 1.0 2.0 89 117
- 0.812 1 2 cbr 1000 ------- 2 1.0 2.0 89 117
r 0.81248 1 0 ack 40 ------- 1 3.0 0.0 8 108
+ 0.81248 0 1 tcp 1000 ------- 1 0.0 3.0 14 118
- 0.81248 0 1 tcp 1000 ------- 1 0.0 3.0 14 118
r 0.81328 1 0 ack 40 ------- 1 3.0 0.0 9 109
+ 0.81328 0 1 tcp 1000 ------- 1 0.0 3.0 15 119
- 0.81328 0 1 tcp 1000 ------- 1 0.0 3.0 15 119
r 0.81408 1 0 ack 40 ------- 1 3.0 0.0 10 110
+ 0.81408 0 1 tcp 1000 ------- 1 0.0 3.0 16 120
- 0.81408 0 1 tcp 1000 ------- 1 0.0 3.0 16 120
r 0.8148 1 2 cbr 1000 ------- 2 1.0 2.0 88 116
r 0.81488 1 0 ack 40 ------- 1 3.0 0.0 11 111
+ 0.81488 0 1 tcp 1000 ------- 1 0.0 3.0 17 121
- 0.81488 0 1 tcp 1000 ------- 1 0.0 3.0 17 121
r 0.81568 1 0 ack 40 ------- 1 3.0 0.0 12 112
+ 0.81568 0 1 tcp 1000 ------- 1 0.0 3.0 18 122
- 0.81568 0 1 tcp 1000 ------- 1 0.0 3.0 18 122
r 0.81728 1 0 ack 40 ------- 1 3.0 0.0 13 113
+ 0.81728 0 1 tcp 1000 ------- 1 0.0 3.0 19 123
- 0.81728 0 1 tcp 1000 ------- 1 0.0 3.0 19 123
+ 0.82 1 2 cbr 1000 ------- 2 1.0 2.0 90 124
- 0.82 1 2 cbr 1000 ------- 2 1.0 2.0 90 124
r 0.8228 1 2 cbr 1000 ------- 2 1.0 2.0 89 117
r 0.82328 0 1 tcp 1000 ------- 1 0.0 3.0 14 118
+ 0.82328 1 2 tcp 1000 ------- 1 0.0 3.0 14 118
- 0.82328 1 2 tcp 1000 ------- 1 0.0 3.0 14 118
r 0.82408 0 1 tcp 1000 ------- 1 0.0 3.0 15 119
+ 0.82408 1 2 tcp 1000 ------- 1 0.0 3.0 15 119
- 0.82408 1 2 tcp 1000 ------- 1 0.0 3.0 15 119
r 0.82488 0 1 tcp 1000 ------- 1 0.0 3.0 16 120
+ 0.82488 1 2 tcp 1000 ------- 1 0.0 3.0 16 120
- 0.82488 1 2 tcp 1000 ------- 1 0.0 3.0 16 120
r 0.82568 0 1 tcp 1000 ------- 1 0.0 3.0 17 121
+ 0.82568 1 2 tcp 1000 ------- 1 0.0 3.0 17 121
- 0.82568 1 2 tcp 1000 ------- 1 0.0 3.0 17 121
r 0.82648 0 1 tcp 1000 ------- 1 0.0 3.0 18 122
+ 0.82648 1 2 tcp 1000 ------- 1 0.0 3.0 18 122
- 0.82648 1 2 tcp 1000 ------- 1 0.0 3.0 18 122
+ 0.828 1 2 cbr 1000 ------- 2 1.0 2.0 91 125
- 0.828 1 2 cbr 1000 ------- 2 1.0 2.0 91 125
r 0.82808 0 1 tcp 1000 ------- 1 0.0 3.0 19 123
+ 0.82808 1 2 tcp 1000 ------- 1 0.0 3.0 19 123
- 0.8288 1 2 tcp 1000 ------- 1 0.0 3.0 19 123
r 0.8308 1 2 cbr 1000 ------- 2 1.0 2.0 90 124
r 0.83408 1 2 tcp 1000 ------- 1 0.0 3.0 14 118
+ 0.83408 2 3 tcp 1000 ------- 1 0.0 3.0 14 118
- 0.83408 2 3 tcp 1000 ------- 1 0.0 3.0 14 118
r 0.83488 1 2 tcp 1000 ------- 1 0.0 3.0 15 119
+ 0.83488 2 3 tcp 1000 ------- 1 0.0 3.0 15 119
- 0.83488 2 3 tcp 1000 ------- 1 0.0 3.0 15 119
r 0.83568 1 2 tcp 1000 ------- 1 0.0 3.0 16 120
+ 0.83568 2 3 tcp 1000 ------- 1 0.0 3.0 16 120
- 0.83568 2 3 tcp 1000 ------- 1 0.0 3.0 16 120
+ 0.836 1 2 cbr 1000 ------- 2 1.0 2.0 92 126
- 0.836 1 2 cbr 1000 ------- 2 1.0 2.0 92 126
r 0.83648 1 2 tcp 1000 ------- 1 0.0 3.0 17 121
+ 0.83648 2 3 tcp 1000 ------- 1 0.0 3.0 17 121
- 0.83648 2 3 tcp 1000 ------- 1 0.0 3.0 17 121
r 0.83728 1 2 tcp 1000 ------- 1 0.0 3.0 18 122
+ 0.83728 2 3 tcp 1000 ------- 1 0.0 3.0 18 122
- 0.83728 2 3 tcp 1000 ------- 1 0.0 3.0 18 122
r 0.8388 1 2 cbr 1000 ------- 2 1.0 2.0 91 125
r 0.8396 1 2 tcp 1000 ------- 1 0.0 3.0 19 123
+ 0.8396 2 3 tcp 1000 ------- 1 0.0 3.0 19 123
- 0.8396 2 3 tcp 1000 ------- 1 0.0 3.0 19 123
+ 0.844 1 2 cbr 1000 ------- 2 1.0 2.0 93 127
- 0.844 1 2 cbr 1000 ------- 2 1.0 2.0 93 127
r 0.84488 2 3 tcp 1000 ------- 1 0.0 3.0 14 118
+ 0.84488 3 2 ack 40 ------- 1 3.0 0.0 14 128
- 0.84488 3 2 ack 40 ------- 1 3.0 0.0 14 128
r 0.84568 2 3 tcp 1000 ------- 1 0.0 3.0 15 119
+ 0.84568 3 2 ack 40 ------- 1 3.0 0.0 15 129
- 0.84568 3 2 ack 40 ------- 1 3.0 0.0 15 129
r 0.84648 2 3 tcp 1000 ------- 1 0.0 3.0 16 120
+ 0.84648 3 2 ack 40 ------- 1 3.0 0.0 16 130
- 0.84648 3 2 ack 40 ------- 1 3.0 0.0 16 130
r 0.8468 1 2 cbr 1000 ------- 2 1.0 2.0 92 126
r 0.84728 2 3 tcp 1000 ------- 1 0.0 3.0 17 121
+ 0.84728 3 2 ack 40 ------- 1 3.0 0.0 17 131
- 0.84728 3 2 ack 40 ------- 1 3.0 0.0 17 131
r 0.84808 2 3 tcp 1000 ------- 1 0.0 3.0 18 122
+ 0.84808 3 2 ack 40 ------- 1 3.0 0.0 18 132
- 0.84808 3 2 ack 40 ------- 1 3.0 0.0 18 132
r 0.8504 2 3 tcp 1000 ------- 1 0.0 3.0 19 123
+ 0.8504 3 2 ack 40 ------- 1 3.0 0.0 19 133
- 0.8504 3 2 ack 40 ------- 1 3.0 0.0 19 133
+ 0.852 1 2 cbr 1000 ------- 2 1.0 2.0 94 134
- 0.852 1 2 cbr 1000 ------- 2 1.0 2.0 94 134
r 0.8548 1 2 cbr 1000 ------- 2 1.0 2.0 93 127
r 0.854912 3 2 ack 40 ------- 1 3.0 0.0 14 128
+ 0.854912 2 1 ack 40 ------- 1 3.0 0.0 14 128
- 0.854912 2 1 ack 40 ------- 1 3.0 0.0 14 128
r 0.855712 3 2 ack 40 ------- 1 3.0 0.0 15 129
+ 0.855712 2 1 ack 40 ------- 1 3.0 0.0 15 129
- 0.855712 2 1 ack 40 ------- 1 3.0 0.0 15 129
r 0.856512 3 2 ack 40 ------- 1 3.0 0.0 16 130
+ 0.856512 2 1 ack 40 ------- 1 3.0 0.0 16 130
- 0.856512 2 1 ack 40 ------- 1 3.0 0.0 16 130
r 0.857312 3 2 ack 40 ------- 1 3.0 0.0 17 131
+ 0.857312 2 1 ack 40 ------- 1 3.0 0.0 17 131
- 0.857312 2 1 ack 40 ------- 1 3.0 0.0 17 131
r 0.858112 3 2 ack 40 ------- 1 3.0 0.0 18 132
+ 0.858112 2 1 ack 40 ------- 1 3.0 0.0 18 132
- 0.858112 2 1 ack 40 ------- 1 3.0 0.0 18 132
+ 0.86 1 2 cbr 1000 ------- 2 1.0 2.0 95 135
- 0.86 1 2 cbr 1000 ------- 2 1.0 2.0 95 135
r 0.860432 3 2 ack 40 ------- 1 3.0 0.0 19 133
+ 0.860432 2 1 ack 40 ------- 1 3.0 0.0 19 133
- 0.860432 2 1 ack 40 ------- 1 3.0 0.0 19 133
r 0.8628 1 2 cbr 1000 ------- 2 1.0 2.0 94 134
r 0.864944 2 1 ack 40 ------- 1 3.0 0.0 14 128
+ 0.864944 1 0 ack 40 ------- 1 3.0 0.0 14 128
- 0.864944 1 0 ack 40 ------- 1 3.0 0.0 14 128
r 0.865744 2 1 ack 40 ------- 1 3.0 0.0 15 129
+ 0.865744 1 0 ack 40 ------- 1 3.0 0.0 15 129
- 0.865744 1 0 ack 40 ------- 1 3.0 0.0 15 129
r 0.866544 2 1 ack 40 ------- 1 3.0 0.0 16 130
+ 0.866544 1 0 ack 40 ------- 1 3.0 0.0 16 130
- 0.866544 1 0 ack 40 ------- 1 3.0 0.0 16 130
r 0.867344 2 1 ack 40 ------- 1 3.0 0.0 17 131
+ 0.867344 1 0 ack 40 ------- 1 3.0 0.0 17 131
- 0.867344 1 0 ack 40 ------- 1 3.0 0.0 17 131
+ 0.868 1 2 cbr 1000 ------- 2 1.0 2.0 96 136
- 0.868 1 2 cbr 1000 ------- 2 1.0 2.0 96 136
r 0.868144 2 1 ack 40 ------- 1 3.0 0.0 18 132
+ 0.868144 1 0 ack 40 ------- 1 3.0 0.0 18 132
- 0.868144 1 0 ack 40 ------- 1 3.0 0.0 18 132
r 0.870464 2 1 ack 40 ------- 1 3.0 0.0 19 133
+ 0.870464 1 0 ack 40 ------- 1 3.0 0.0 19 133
- 0.870464 1 0 ack 40 ------- 1 3.0 0.0 19 133
r 0.8708 1 2 cbr 1000 ------- 2 1.0 2.0 95 135
r 0.874976 1 0 ack 40 ------- 1 3.0 0.0 14 128
+ 0.874976 0 1 tcp 1000 ------- 1 0.0 3.0 20 137
- 0.874976 0 1 tcp 1000 ------- 1 0.0 3.0 20 137
+ 0.874976 0 1 tcp 1000 ------- 1 0.0 3.0 21 138
r 0.875776 1 0 ack 40 ------- 1 3.0 0.0 15 129
+ 0.875776 0 1 tcp 1000 ------- 1 0.0 3.0 22 139
+ 0.875776 0 1 tcp 1000 ------- 1 0.0 3.0 23 140