+ 0.1 1 2 cbr 1000 ------- 2 1.0 2.0 0 0
- 0.1 1 2 cbr 1000 ------- 2 1.0 2.0 0 0
+ 0.108 1 2 cbr 1000 ------- 2 1.0 2.0 1 1
- 0.108 1 2 cbr 1000 ------- 2 1.0 2.0 1 1
r 0.1108 1 2 cbr 1000 ------- 2 1.0 2.0 0 0
+ 0.116 1 2 cbr 1000 ------- 2 1.0 2.0 2 2
- 0.116 1 2 cbr 1000 ------- 2 1.0 2.0 2 2
r 0.1188 1 2 cbr 1000 ------- 2 1.0 2.0 1 1
+ 0.124 1 2 cbr 1000 ------- 2 1.0 2.0 3 3
- 0.124 1 2 cbr 1000 ------- 2 1.0 2.0 3 3
r 0.1268 1 2 cbr 1000 ------- 2 1.0 2.0 2 2
+ 0.132 1 2 cbr 1000 ------- 2 1.0 2.0 4 4
- 0.132 1 2 cbr 1000 ------- 2 1.0 2.0 4 4
r 0.1348 1 2 cbr 1000 ------- 2 1.0 2.0 3 3
+ 0.14 1 2 cbr 1000 ------- 2 1.0 2.0 5 5
- 0.14 1 2 cbr 1000 ------- 2 1.0 2.0 5 5
r 0.1428 1 2 cbr 1000 ------- 2 1.0 2.0 4 4
+ 0.148 1 2 cbr 1000 ------- 2 1.0 2.0 6 6
- 0.148 1 2 cbr 1000 ------- 2 1.0 2.0 6 6
r 0.1508 1 2 cbr 1000 ------- 2 1.0 2.0 5 5
+ 0.156 1 2 cbr 1000 ------- 2 1.0 2.0 7 7
- 0.156 1 2 cbr 1000 ------- 2 1.0 2.0 7 7
r 0.1588 1 2 cbr 1000 ------- 2 1.0 2.0 6 6
+ 0.164 1 2 cbr 1000 ------- 2 1.0 2.0 8 8
- 0.164 1 2 cbr 1000 ------- 2 1.0 2.0 8 8
r 0.1668 1 2 cbr 1000 ------- 2 1.0 2.0 7 7
+ 0.172 1 2 cbr 1000 ------- 2 1.0 2.0 9 9
- 0.172 1 2 cbr 1000 ------- 2 1.0 2.0 9 9
r 0.1748 1 2 cbr 1000 ------- 2 1.0 2.0 8 8
+ 0.18 1 2 cbr 1000 ------- 2 1.0 2.0 10 10
- 0.18 1 2 cbr 1000 ------- 2 1.0 2.0 10 10
r 0.1828 1 2 cbr 1000 ------- 2 1.0 2.0 9 9
+ 0.188 1 2 cbr 1000 ------- 2 1.0 2.0 11 11
- 0.188 1 2 cbr 1000 ------- 2 1.0 2.0 11 11
r 0.1908 1 2 cbr 1000 ------- 2 1.0 2.0 10 10
+ 0.196 1 2 cbr 1000 ------- 2 1.0 2.0 12 12
- 0.196 1 2 cbr 1000 ------- 2 1.0 2.0 12 12
r 0.1988 1 2 cbr 1000 ------- 2 1.0 2.0 11 11
+ 0.204 1 2 cbr 1000 ------- 2 1.0 2.0 13 13
- 0.204 1 2 cbr 1000 ------- 2 1.0 2.0 13 13
r 0.2068 1 2 cbr 1000 ------- 2 1.0 2.0 12 12
+ 0.212 1 2 cbr 1000 ------- 2 1.0 2.0 14 14
- 0.212 1 2 cbr 1000 ------- 2 1.0 2.0 14 14
r 0.2148 1 2 cbr 1000 ------- 2 1.0 2.0 13 13
+ 0.22 1 2 cbr 1000 ------- 2 1.0 2.0 15 15
- 0.22 1 2 cbr 1000 ------- 2 1.0 2.0 15 15
r 0.2228 1 2 cbr 1000 ------- 2 1.0 2.0 14 14
+ 0.228 1 2 cbr 1000 ------- 2 1.0 2.0 16 16
- 0.228 1 2 cbr 1000 ------- 2 1.0 2.0 16 16
r 0.2308 1 2 cbr 1000 ------- 2 1.0 2.0 15 15
+ 0.236 1 2 cbr 1000 ------- 2 1.0 2.0 17 17
- 0.236 1 2 cbr 1000 ------- 2 1.0 2.0 17 17
r 0.2388 1 2 cbr 1000 ------- 2 1.0 2.0 16 16
+ 0.244 1 2 cbr 1000 ------- 2 1.0 2.0 18 18
- 0.244 1 2 cbr 1000 ------- 2 1.0 2.0 18 18
r 0.2468 1 2 cbr 1000 ------- 2 1.0 2.0 17 17
+ 0.252 1 2 cbr 1000 ------- 2 1.0 2.0 19 19
- 0.252 1 2 cbr 1000 ------- 2 1.0 2.0 19 19
r 0.2548 1 2 cbr 1000 ------- 2 1.0 2.0 18 18
+ 0.26 1 2 cbr 1000 ------- 2 1.0 2.0 20 20
- 0.26 1 2 cbr 1000 ------- 2 1.0 2.0 20 20
r 0.2628 1 2 cbr 1000 ------- 2 1.0 2.0 19 19
+ 0.268 1 2 cbr 1000 ------- 2 1.0 2.0 21 21
- 0.268 1 2 cbr 1000 ------- 2 1.0 2.0 21 21
r 0.2708 1 2 cbr 1000 ------- 2 1.0 2.0 20 20
+ 0.276 1 2 cbr 1000 ------- 2 1.0 2.0 22 22
- 0.276 1 2 cbr 1000 ------- 2 1.0 2.0 22 22
r 0.2788 1 2 cbr 1000 ------- 2 1.0 2.0 21 21
+ 0.284 1 2 cbr 1000 ------- 2 1.0 2.0 23 23
- 0.284 1 2 cbr 1000 ------- 2 1.0 2.0 23 23
r 0.2868 1 2 cbr 1000 ------- 2 1.0 2.0 22 22
+ 0.292 1 2 cbr 1000 ------- 2 1.0 2.0 24 24
- 0.292 1 2 cbr 1000 ------- 2 1.0 2.0 24 24
r 0.2948 1 2 cbr 1000 ------- 2 1.0 2.0 23 23
+ 0.3 1 2 cbr 1000 ------- 2 1.0 2.0 25 25
- 0.3 1 2 cbr 1000 ------- 2 1.0 2.0 25 25
r 0.3028 1 2 cbr 1000 ------- 2 1.0 2.0 24 24
+ 0.308 1 2 cbr 1000 ------- 2 1.0 2.0 26 26
- 0.308 1 2 cbr 1000 ------- 2 1.0 2.0 26 26
r 0.3108 1 2 cbr 1000 ------- 2 1.0 2.0 25 25
+ 0.316 1 2 cbr 1000 ------- 2 1.0 2.0 27 27
- 0.316 1 2 cbr 1000 ------- 2 1.0 2.0 27 27
r 0.3188 1 2 cbr 1000 ------- 2 1.0 2.0 26 26
+ 0.324 1 2 cbr 1000 ------- 2 1.0 2.0 28 28
- 0.324 1 2 cbr 1000 ------- 2 1.0 2.0 28 28
r 0.3268 1 2 cbr 1000 ------- 2 1.0 2.0 27 27
+ 0.332 1 2 cbr 1000 ------- 2 1.0 2.0 29 29
- 0.332 1 2 cbr 1000 ------- 2 1.0 2.0 29 29
r 0.3348 1 2 cbr 1000 ------- 2 1.0 2.0 28 28
+ 0.34 1 2 cbr 1000 ------- 2 1.0 2.0 30 30
- 0.34 1 2 cbr 1000 ------- 2 1.0 2.0 30 30
r 0.3428 1 2 cbr 1000 ------- 2 1.0 2.0 29 29
+ 0.348 1 2 cbr 1000 ------- 2 1.0 2.0 31 31
- 0.348 1 2 cbr 1000 ------- 2 1.0 2.0 31 31
r 0.3508 1 2 cbr 1000 ------- 2 1.0 2.0 30 30
+ 0.356 1 2 cbr 1000 ------- 2 1.0 2.0 32 32
- 0.356 1 2 cbr 1000 ------- 2 1.0 2.0 32 32
r 0.3588 1 2 cbr 1000 ------- 2 1.0 2.0 31 31
+ 0.364 1 2 cbr 1000 ------- 2 1.0 2.0 33 33
- 0.364 1 2 cbr 1000 ------- 2 1.0 2.0 33 33
r 0.3668 1 2 cbr 1000 ------- 2 1.0 2.0 32 32
+ 0.372 1 2 cbr 1000 ------- 2 1.0 2.0 34 34
- 0.372 1 2 cbr 1000 ------- 2 1.0 2.0 34 34
r 0.3748 1 2 cbr 1000 ------- 2 1.0 2.0 33 33
+ 0.38 1 2 cbr 1000 ------- 2 1.0 2.0 35 35
- 0.38 1 2 cbr 1000 ------- 2 1.0 2.0 35 35
r 0.3828 1 2 cbr 1000 ------- 2 1.0 2.0 34 34
+ 0.388 1 2 cbr 1000 ------- 2 1.0 2.0 36 36
- 0.388 1 2 cbr 1000 ------- 2 1.0 2.0 36 36
r 0.3908 1 2 cbr 1000 ------- 2 1.0 2.0 35 35
+ 0.396 1 2 cbr 1000 ------- 2 1.0 2.0 37 37
- 0.396 1 2 cbr 1000 ------- 2 1.0 2.0 37 37
r 0.3988 1 2 cbr 1000 ------- 2 1.0 2.0 36 36
+ 0.404 1 2 cbr 1000 ------- 2 1.0 2.0 38 38
- 0.404 1 2 cbr 1000 ------- 2 1.0 2.0 38 38
r 0.4068 1 2 cbr 1000 ------- 2 1.0 2.0 37 37
+ 0.412 1 2 cbr 1000 ------- 2 1.0 2.0 39 39
- 0.412 1 2 cbr 1000 ------- 2 1.0 2.0 39 39
r 0.4148 1 2 cbr 1000 ------- 2 1.0 2.0 38 38
+ 0.42 1 2 cbr 1000 ------- 2 1.0 2.0 40 40
- 0.42 1 2 cbr 1000 ------- 2 1.0 2.0 40 40
r 0.4228 1 2 cbr 1000 ------- 2 1.0 2.0 39 39
+ 0.428 1 2 cbr 1000 ------- 2 1.0 2.0 41 41
- 0.428 1 2 cbr 1000 ------- 2 1.0 2.0 41 41
r 0.4308 1 2 cbr 1000 ------- 2 1.0 2.0 40 40
+ 0.436 1 2 cbr 1000 ------- 2 1.0 2.0 42 42
- 0.436 1 2 cbr 1000 ------- 2 1.0 2.0 42 42
r 0.4388 1 2 cbr 1000 ------- 2 1.0 2.0 41 41
+ 0.444 1 2 cbr 1000 ------- 2 1.0 2.0 43 43
- 0.444 1 2 cbr 1000 ------- 2 1.0 2.0 43 43
r 0.4468 1 2 cbr 1000 ------- 2 1.0 2.0 42 42
+ 0.452 1 2 cbr 1000 ------- 2 1.0 2.0 44 44
- 0.452 1 2 cbr 1000 ------- 2 1.0 2.0 44 44
r 0.4548 1 2 cbr 1000 ------- 2 1.0 2.0 43 43
+ 0.46 1 2 cbr 1000 ------- 2 1.0 2.0 45 45
- 0.46 1 2 cbr 1000 ------- 2 1.0 2.0 45 45
r 0.4628 1 2 cbr 1000 ------- 2 1.0 2.0 44 44
+ 0.468 1 2 cbr 1000 ------- 2 1.0 2.0 46 46
- 0.468 1 2 cbr 1000 ------- 2 1.0 2.0 46 46
r 0.4708 1 2 cbr 1000 ------- 2 1.0 2.0 45 45
+ 0.476 1 2 cbr 1000 ------- 2 1.0 2.0 47 47
- 0.476 1 2 cbr 1000 ------- 2 1.0 2.0 47 47
r 0.4788 1 2 cbr 1000 ------- 2 1.0 2.0 46 46
+ 0.484 1 2 cbr 1000 ------- 2 1.0 2.0 48 48
- 0.484 1 2 cbr 1000 ------- 2 1.0 2.0 48 48
r 0.4868 1 2 cbr 1000 ------- 2 1.0 2.0 47 47
+ 0.492 1 2 cbr 1000 ------- 2 1.0 2.0 49 49
- 0.492 1 2 cbr 1000 ------- 2 1.0 2.0 49 49
r 0.4948 1 2 cbr 1000 ------- 2 1.0 2.0 48 48
+ 0.5 0 1 tcp 40 ------- 1 0.0 3.0 0 50
- 0.5 0 1 tcp 40 ------- 1 0.0 3.0 0 50
+ 0.5 1 2 cbr 1000 ------- 2 1.0 2.0 50 51
- 0.5 1 2 cbr 1000 ------- 2 1.0 2.0 50 51
r 0.5028 1 2 cbr 1000 ------- 2 1.0 2.0 49 49
+ 0.508 1 2 cbr 1000 ------- 2 1.0 2.0 51 52
- 0.508 1 2 cbr 1000 ------- 2 1.0 2.0 51 52
r 0.510032 0 1 tcp 40 ------- 1 0.0 3.0 0 50
+ 0.510032 1 2 tcp 40 ------- 1 0.0 3.0 0 50
- 0.510032 1 2 tcp 40 ------- 1 0.0 3.0 0 50
r 0.5108 1 2 cbr 1000 ------- 2 1.0 2.0 50 51
+ 0.516 1 2 cbr 1000 ------- 2 1.0 2.0 52 53
- 0.516 1 2 cbr 1000 ------- 2 1.0 2.0 52 53
r 0.5188 1 2 cbr 1000 ------- 2 1.0 2.0 51 52
r 0.520064 1 2 tcp 40 ------- 1 0.0 3.0 0 50
+ 0.520064 2 3 tcp 40 ------- 1 0.0 3.0 0 50
- 0.520064 2 3 tcp 40 ------- 1 0.0 3.0 0 50
+ 0.524 1 2 cbr 1000 ------- 2 1.0 2.0 53 54
- 0.524 1 2 cbr 1000 ------- 2 1.0 2.0 53 54
r 0.5268 1 2 cbr 1000 ------- 2 1.0 2.0 52 53
r 0.530096 2 3 tcp 40 ------- 1 0.0 3.0 0 50
+ 0.530096 3 2 ack 40 ------- 1 3.0 0.0 0 55
- 0.530096 3 2 ack 40 ------- 1 3.0 0.0 0 55
+ 0.532 1 2 cbr 1000 ------- 2 1.0 2.0 54 56
- 0.532 1 2 cbr 1000 ------- 2 1.0 2.0 54 56
r 0.5348 1 2 cbr 1000 ------- 2 1.0 2.0 53 54
+ 0.54 1 2 cbr 1000 ------- 2 1.0 2.0 55 57
- 0.54 1 2 cbr 1000 ------- 2 1.0 2.0 55 57
r 0.540128 3 2 ack 40 ------- 1 3.0 0.0 0 55
+ 0.540128 2 1 ack 40 ------- 1 3.0 0.0 0 55
- 0.540128 2 1 ack 40 ------- 1 3.0 0.0 0 55
r 0.5428 1 2 cbr 1000 ------- 2 1.0 2.0 54 56
+ 0.548 1 2 cbr 1000 ------- 2 1.0 2.0 56 58
- 0.548 1 2 cbr 1000 ------- 2 1.0 2.0 56 58
r 0.55016 2 1 ack 40 ------- 1 3.0 0.0 0 55
+ 0.55016 1 0 ack 40 ------- 1 3.0 0.0 0 55
- 0.55016 1 0 ack 40 ------- 1 3.0 0.0 0 55
r 0.5508 1 2 cbr 1000 ------- 2 1.0 2.0 55 57
+ 0.556 1 2 cbr 1000 ------- 2 1.0 2.0 57 59
- 0.556 1 2 cbr 1000 ------- 2 1.0 2.0 57 59
r 0.5588 1 2 cbr 1000 ------- 2 1.0 2.0 56 58
r 0.560192 1 0 ack 40 ------- 1 3.0 0.0 0 55
+ 0.560192 0 1 tcp 1040 ------- 1 0.0 3.0 1 60
- 0.560192 0 1 tcp 1040 ------- 1 0.0 3.0 1 60
+ 0.560192 0 1 tcp 1040 ------- 1 0.0 3.0 2 61
- 0.561024 0 1 tcp 1040 ------- 1 0.0 3.0 2 61
+ 0.564 1 2 cbr 1000 ------- 2 1.0 2.0 58 62
- 0.564 1 2 cbr 1000 ------- 2 1.0 2.0 58 62
r 0.5668 1 2 cbr 1000 ------- 2 1.0 2.0 57 59
r 0.571024 0 1 tcp 1040 ------- 1 0.0 3.0 1 60
+ 0.571024 1 2 tcp 1040 ------- 1 0.0 3.0 1 60
- 0.571024 1 2 tcp 1040 ------- 1 0.0 3.0 1 60
r 0.571856 0 1 tcp 1040 ------- 1 0.0 3.0 2 61
+ 0.571856 1 2 tcp 1040 ------- 1 0.0 3.0 2 61
- 0.571856 1 2 tcp 1040 ------- 1 0.0 3.0 2 61
+ 0.572 1 2 cbr 1000 ------- 2 1.0 2.0 59 63
- 0.572688 1 2 cbr 1000 ------- 2 1.0 2.0 59 63
r 0.5748 1 2 cbr 1000 ------- 2 1.0 2.0 58 62
+ 0.58 1 2 cbr 1000 ------- 2 1.0 2.0 60 64
- 0.58 1 2 cbr 1000 ------- 2 1.0 2.0 60 64
r 0.581856 1 2 tcp 1040 ------- 1 0.0 3.0 1 60
+ 0.581856 2 3 tcp 1040 ------- 1 0.0 3.0 1 60
- 0.581856 2 3 tcp 1040 ------- 1 0.0 3.0 1 60
r 0.582688 1 2 tcp 1040 ------- 1 0.0 3.0 2 61
+ 0.582688 2 3 tcp 1040 ------- 1 0.0 3.0 2 61
- 0.582688 2 3 tcp 1040 ------- 1 0.0 3.0 2 61
r 0.583488 1 2 cbr 1000 ------- 2 1.0 2.0 59 63
+ 0.588 1 2 cbr 1000 ------- 2 1.0 2.0 61 65
- 0.588 1 2 cbr 1000 ------- 2 1.0 2.0 61 65
r 0.5908 1 2 cbr 1000 ------- 2 1.0 2.0 60 64
r 0.592688 2 3 tcp 1040 ------- 1 0.0 3.0 1 60
+ 0.592688 3 2 ack 40 ------- 1 3.0 0.0 1 66
- 0.592688 3 2 ack 40 ------- 1 3.0 0.0 1 66
r 0.59352 2 3 tcp 1040 ------- 1 0.0 3.0 2 61
+ 0.59352 3 2 ack 40 ------- 1 3.0 0.0 2 67
- 0.59352 3 2 ack 40 ------- 1 3.0 0.0 2 67
+ 0.596 1 2 cbr 1000 ------- 2 1.0 2.0 62 68
- 0.596 1 2 cbr 1000 ------- 2 1.0 2.0 62 68
r 0.5988 1 2 cbr 1000 ------- 2 1.0 2.0 61 65
r 0.60272 3 2 ack 40 ------- 1 3.0 0.0 1 66
+ 0.60272 2 1 ack 40 ------- 1 3.0 0.0 1 66
- 0.60272 2 1 ack 40 ------- 1 3.0 0.0 1 66
r 0.603552 3 2 ack 40 ------- 1 3.0 0.0 2 67
+ 0.603552 2 1 ack 40 ------- 1 3.0 0.0 2 67
- 0.603552 2 1 ack 40 ------- 1 3.0 0.0 2 67
+ 0.604 1 2 cbr 1000 ------- 2 1.0 2.0 63 69
- 0.604 1 2 cbr 1000 ------- 2 1.0 2.0 63 69
r 0.6068 1 2 cbr 1000 ------- 2 1.0 2.0 62 68
+ 0.612 1 2 cbr 1000 ------- 2 1.0 2.0 64 70
- 0.612 1 2 cbr 1000 ------- 2 1.0 2.0 64 70
r 0.612752 2 1 ack 40 ------- 1 3.0 0.0 1 66
+ 0.612752 1 0 ack 40 ------- 1 3.0 0.0 1 66
- 0.612752 1 0 ack 40 ------- 1 3.0 0.0 1 66
r 0.613584 2 1 ack 40 ------- 1 3.0 0.0 2 67
+ 0.613584 1 0 ack 40 ------- 1 3.0 0.0 2 67
- 0.613584 1 0 ack 40 ------- 1 3.0 0.0 2 67
r 0.6148 1 2 cbr 1000 ------- 2 1.0 2.0 63 69
+ 0.62 1 2 cbr 1000 ------- 2 1.0 2.0 65 71
- 0.62 1 2 cbr 1000 ------- 2 1.0 2.0 65 71
r 0.622784 1 0 ack 40 ------- 1 3.0 0.0 1 66
+ 0.622784 0 1 tcp 1040 ------- 1 0.0 3.0 3 72
- 0.622784 0 1 tcp 1040 ------- 1 0.0 3.0 3 72
+ 0.622784 0 1 tcp 1040 ------- 1 0.0 3.0 4 73
r 0.6228 1 2 cbr 1000 ------- 2 1.0 2.0 64 70
r 0.623616 1 0 ack 40 ------- 1 3.0 0.0 2 67
+ 0.623616 0 1 tcp 1040 ------- 1 0.0 3.0 5 74
+ 0.623616 0 1 tcp 1040 ------- 1 0.0 3.0 6 75
- 0.623616 0 1 tcp 1040 ------- 1 0.0 3.0 4 73
- 0.624448 0 1 tcp 1040 ------- 1 0.0 3.0 5 74
- 0.62528 0 1 tcp 1040 ------- 1 0.0 3.0 6 75
+ 0.628 1 2 cbr 1000 ------- 2 1.0 2.0 66 76
- 0.628 1 2 cbr 1000 ------- 2 1.0 2.0 66 76
r 0.6308 1 2 cbr 1000 ------- 2 1.0 2.0 65 71
r 0.633616 0 1 tcp 1040 ------- 1 0.0 3.0 3 72
+ 0.633616 1 2 tcp 1040 ------- 1 0.0 3.0 3 72
- 0.633616 1 2 tcp 1040 ------- 1 0.0 3.0 3 72
r 0.634448 0 1 tcp 1040 ------- 1 0.0 3.0 4 73
+ 0.634448 1 2 tcp 1040 ------- 1 0.0 3.0 4 73
- 0.634448 1 2 tcp 1040 ------- 1 0.0 3.0 4 73
r 0.63528 0 1 tcp 1040 ------- 1 0.0 3.0 5 74
+ 0.63528 1 2 tcp 1040 ------- 1 0.0 3.0 5 74
- 0.63528 1 2 tcp 1040 ------- 1 0.0 3.0 5 74
+ 0.636 1 2 cbr 1000 ------- 2 1.0 2.0 67 77
r 0.636112 0 1 tcp 1040 ------- 1 0.0 3.0 6 75
+ 0.636112 1 2 tcp 1040 ------- 1 0.0 3.0 6 75
- 0.636112 1 2 cbr 1000 ------- 2 1.0 2.0 67 77
- 0.636912 1 2 tcp 1040 ------- 1 0.0 3.0 6 75
r 0.6388 1 2 cbr 1000 ------- 2 1.0 2.0 66 76
+ 0.644 1 2 cbr 1000 ------- 2 1.0 2.0 68 78
- 0.644 1 2 cbr 1000 ------- 2 1.0 2.0 68 78
r 0.644448 1 2 tcp 1040 ------- 1 0.0 3.0 3 72
+ 0.644448 2 3 tcp 1040 ------- 1 0.0 3.0 3 72
- 0.644448 2 3 tcp 1040 ------- 1 0.0 3.0 3 72
r 0.64528 1 2 tcp 1040 ------- 1 0.0 3.0 4 73
+ 0.64528 2 3 tcp 1040 ------- 1 0.0 3.0 4 73
- 0.64528 2 3 tcp 1040 ------- 1 0.0 3.0 4 73
r 0.646112 1 2 tcp 1040 ------- 1 0.0 3.0 5 74
+ 0.646112 2 3 tcp 1040 ------- 1 0.0 3.0 5 74
- 0.646112 2 3 tcp 1040 ------- 1 0.0 3.0 5 74
r 0.646912 1 2 cbr 1000 ------- 2 1.0 2.0 67 77
r 0.647744 1 2 tcp 1040 ------- 1 0.0 3.0 6 75
+ 0.647744 2 3 tcp 1040 ------- 1 0.0 3.0 6 75
- 0.647744 2 3 tcp 1040 ------- 1 0.0 3.0 6 75
+ 0.652 1 2 cbr 1000 ------- 2 1.0 2.0 69 79
- 0.652 1 2 cbr 1000 ------- 2 1.0 2.0 69 79
r 0.6548 1 2 cbr 1000 ------- 2 1.0 2.0 68 78
r 0.65528 2 3 tcp 1040 ------- 1 0.0 3.0 3 72
+ 0.65528 3 2 ack 40 ------- 1 3.0 0.0 3 80
- 0.65528 3 2 ack 40 ------- 1 3.0 0.0 3 80
r 0.656112 2 3 tcp 1040 ------- 1 0.0 3.0 4 73
+ 0.656112 3 2 ack 40 ------- 1 3.0 0.0 4 81
- 0.656112 3 2 ack 40 ------- 1 3.0 0.0 4 81
r 0.656944 2 3 tcp 1040 ------- 1 0.0 3.0 5 74
+ 0.656944 3 2 ack 40 ------- 1 3.0 0.0 5 82
- 0.656944 3 2 ack 40 ------- 1 3.0 0.0 5 82
r 0.658576 2 3 tcp 1040 ------- 1 0.0 3.0 6 75
+ 0.658576 3 2 ack 40 ------- 1 3.0 0.0 6 83
- 0.658576 3 2 ack 40 ------- 1 3.0 0.0 6 83
+ 0.66 1 2 cbr 1000 ------- 2 1.0 2.0 70 84
- 0.66 1 2 cbr 1000 ------- 2 1.0 2.0 70 84
r 0.6628 1 2 cbr 1000 ------- 2 1.0 2.0 69 79
r 0.665312 3 2 ack 40 ------- 1 3.0 0.0 3 80
+ 0.665312 2 1 ack 40 ------- 1 3.0 0.0 3 80
- 0.665312 2 1 ack 40 ------- 1 3.0 0.0 3 80
r 0.666144 3 2 ack 40 ------- 1 3.0 0.0 4 81
+ 0.666144 2 1 ack 40 ------- 1 3.0 0.0 4 81
- 0.666144 2 1 ack 40 ------- 1 3.0 0.0 4 81
r 0.666976 3 2 ack 40 ------- 1 3.0 0.0 5 82
+ 0.666976 2 1 ack 40 ------- 1 3.0 0.0 5 82
- 0.666976 2 1 ack 40 ------- 1 3.0 0.0 5 82
+ 0.668 1 2 cbr 1000 ------- 2 1.0 2.0 71 85
- 0.668 1 2 cbr 1000 ------- 2 1.0 2.0 71 85
r 0.668608 3 2 ack 40 ------- 1 3.0 0.0 6 83
+ 0.668608 2 1 ack 40 ------- 1 3.0 0.0 6 83
- 0.668608 2 1 ack 40 ------- 1 3.0 0.0 6 83
r 0.6708 1 2 cbr 1000 ------- 2 1.0 2.0 70 84
r 0.675344 2 1 ack 40 ------- 1 3.0 0.0 3 80
+ 0.675344 1 0 ack 40 ------- 1 3.0 0.0 3 80
- 0.675344 1 0 ack 40 ------- 1 3.0 0.0 3 80
+ 0.676 1 2 cbr 1000 ------- 2 1.0 2.0 72 86
- 0.676 1 2 cbr 1000 ------- 2 1.0 2.0 72 86
r 0.676176 2 1 ack 40 ------- 1 3.0 0.0 4 81
+ 0.676176 1 0 ack 40 ------- 1 3.0 0.0 4 81
- 0.676176 1 0 ack 40 ------- 1 3.0 0.0 4 81
r 0.677008 2 1 ack 40 ------- 1 3.0 0.0 5 82
+ 0.677008 1 0 ack 40 ------- 1 3.0 0.0 5 82
- 0.677008 1 0 ack 40 ------- 1 3.0 0.0 5 82
r 0.67864 2 1 ack 40 ------- 1 3.0 0.0 6 83
+ 0.67864 1 0 ack 40 ------- 1 3.0 0.0 6 83
- 0.67864 1 0 ack 40 ------- 1 3.0 0.0 6 83
r 0.6788 1 2 cbr 1000 ------- 2 1.0 2.0 71 85
+ 0.684 1 2 cbr 1000 ------- 2 1.0 2.0 73 87
- 0.684 1 2 cbr 1000 ------- 2 1.0 2.0 73 87
r 0.685376 1 0 ack 40 ------- 1 3.0 0.0 3 80
+ 0.685376 0 1 tcp 1040 ------- 1 0.0 3.0 7 88
- 0.685376 0 1 tcp 1040 ------- 1 0.0 3.0 7 88
+ 0.685376 0 1 tcp 1040 ------- 1 0.0 3.0 8 89
r 0.686208 1 0 ack 40 ------- 1 3.0 0.0 4 81
+ 0.686208 0 1 tcp 1040 ------- 1 0.0 3.0 9 90
+ 0.686208 0 1 tcp 1040 ------- 1 0.0 3.0 10 91
- 0.686208 0 1 tcp 1040 ------- 1 0.0 3.0 8 89
r 0.6868 1 2 cbr 1000 ------- 2 1.0 2.0 72 86
r 0.68704 1 0 ack 40 ------- 1 3.0 0.0 5 82
+ 0.68704 0 1 tcp 1040 ------- 1 0.0 3.0 11 92
+ 0.68704 0 1 tcp 1040 ------- 1 0.0 3.0 12 93
- 0.68704 0 1 tcp 1040 ------- 1 0.0 3.0 9 90
- 0.687872 0 1 tcp 1040 ------- 1 0.0 3.0 10 91
r 0.688672 1 0 ack 40 ------- 1 3.0 0.0 6 83
+ 0.688672 0 1 tcp 1040 ------- 1 0.0 3.0 13 94
+ 0.688672 0 1 tcp 1040 ------- 1 0.0 3.0 14 95
- 0.688704 0 1 tcp 1040 ------- 1 0.0 3.0 11 92
- 0.689536 0 1 tcp 1040 ------- 1 0.0 3.0 12 93
- 0.690368 0 1 tcp 1040 ------- 1 0.0 3.0 13 94
- 0.6912 0 1 tcp 1040 ------- 1 0.0 3.0 14 95
+ 0.692 1 2 cbr 1000 ------- 2 1.0 2.0 74 96
- 0.692 1 2 cbr 1000 ------- 2 1.0 2.0 74 96
r 0.6948 1 2 cbr 1000 ------- 2 1.0 2.0 73 87
r 0.696208 0 1 tcp 1040 ------- 1 0.0 3.0 7 88
+ 0.696208 1 2 tcp 1040 ------- 1 0.0 3.0 7 88
- 0.696208 1 2 tcp 1040 ------- 1 0.0 3.0 7 88
r 0.69704 0 1 tcp 1040 ------- 1 0.0 3.0 8 89
+ 0.69704 1 2 tcp 1040 ------- 1 0.0 3.0 8 89
- 0.69704 1 2 tcp 1040 ------- 1 0.0 3.0 8 89
r 0.697872 0 1 tcp 1040 ------- 1 0.0 3.0 9 90
+ 0.697872 1 2 tcp 1040 ------- 1 0.0 3.0 9 90
- 0.697872 1 2 tcp 1040 ------- 1 0.0 3.0 9 90
r 0.698704 0 1 tcp 1040 ------- 1 0.0 3.0 10 91
+ 0.698704 1 2 tcp 1040 ------- 1 0.0 3.0 10 91
- 0.698704 1 2 tcp 1040 ------- 1 0.0 3.0 10 91
r 0.699536 0 1 tcp 1040 ------- 1 0.0 3.0 11 92
+ 0.699536 1 2 tcp 1040 ------- 1 0.0 3.0 11 92
- 0.699536 1 2 tcp 1040 ------- 1 0.0 3.0 11 92
+ 0.7 1 2 cbr 1000 ------- 2 1.0 2.0 75 97
r 0.700368 0 1 tcp 1040 ------- 1 0.0 3.0 12 93
+ 0.700368 1 2 tcp 1040 ------- 1 0.0 3.0 12 93
- 0.700368 1 2 cbr 1000 ------- 2 1.0 2.0 75 97
- 0.701168 1 2 tcp 1040 ------- 1 0.0 3.0 12 93
r 0.7012 0 1 tcp 1040 ------- 1 0.0 3.0 13 94
+ 0.7012 1 2 tcp 1040 ------- 1 0.0 3.0 13 94
- 0.702 1 2 tcp 1040 ------- 1 0.0 3.0 13 94
r 0.702032 0 1 tcp 1040 ------- 1 0.0 3.0 14 95
+ 0.702032 1 2 tcp 1040 ------- 1 0.0 3.0 14 95
r 0.7028 1 2 cbr 1000 ------- 2 1.0 2.0 74 96
- 0.702832 1 2 tcp 1040 ------- 1 0.0 3.0 14 95
r 0.70704 1 2 tcp 1040 ------- 1 0.0 3.0 7 88
+ 0.70704 2 3 tcp 1040 ------- 1 0.0 3.0 7 88
- 0.70704 2 3 tcp 1040 ------- 1 0.0 3.0 7 88
r 0.707872 1 2 tcp 1040 ------- 1 0.0 3.0 8 89
+ 0.707872 2 3 tcp 1040 ------- 1 0.0 3.0 8 89
- 0.707872 2 3 tcp 1040 ------- 1 0.0 3.0 8 89
+ 0.708 1 2 cbr 1000 ------- 2 1.0 2.0 76 98
- 0.708 1 2 cbr 1000 ------- 2 1.0 2.0 76 98
r 0.708704 1 2 tcp 1040 ------- 1 0.0 3.0 9 90
+ 0.708704 2 3 tcp 1040 ------- 1 0.0 3.0 9 90
- 0.708704 2 3 tcp 1040 ------- 1 0.0 3.0 9 90
r 0.709536 1 2 tcp 1040 ------- 1 0.0 3.0 10 91
+ 0.709536 2 3 tcp 1040 ------- 1 0.0 3.0 10 91
- 0.709536 2 3 tcp 1040 ------- 1 0.0 3.0 10 91
r 0.710368 1 2 tcp 1040 ------- 1 0.0 3.0 11 92
+ 0.710368 2 3 tcp 1040 ------- 1 0.0 3.0 11 92
- 0.710368 2 3 tcp 1040 ------- 1 0.0 3.0 11 92
r 0.711168 1 2 cbr 1000 ------- 2 1.0 2.0 75 97
r 0.712 1 2 tcp 1040 ------- 1 0.0 3.0 12 93
+ 0.712 2 3 tcp 1040 ------- 1 0.0 3.0 12 93
- 0.712 2 3 tcp 1040 ------- 1 0.0 3.0 12 93
r 0.712832 1 2 tcp 1040 ------- 1 0.0 3.0 13 94
+ 0.712832 2 3 tcp 1040 ------- 1 0.0 3.0 13 94
- 0.712832 2 3 tcp 1040 ------- 1 0.0 3.0 13 94
r 0.713664 1 2 tcp 1040 ------- 1 0.0 3.0 14 95
+ 0.713664 2 3 tcp 1040 ------- 1 0.0 3.0 14 95
- 0.713664 2 3 tcp 1040 ------- 1 0.0 3.0 14 95
+ 0.716 1 2 cbr 1000 ------- 2 1.0 2.0 77 99
- 0.716 1 2 cbr 1000 ------- 2 1.0 2.0 77 99
r 0.717872 2 3 tcp 1040 ------- 1 0.0 3.0 7 88
+ 0.717872 3 2 ack 40 ------- 1 3.0 0.0 7 100
- 0.717872 3 2 ack 40 ------- 1 3.0 0.0 7 100
r 0.718704 2 3 tcp 1040 ------- 1 0.0 3.0 8 89
+ 0.718704 3 2 ack 40 ------- 1 3.0 0.0 8 101
- 0.718704 3 2 ack 40 ------- 1 3.0 0.0 8 101
r 0.7188 1 2 cbr 1000 ------- 2 1.0 2.0 76 98
r 0.719536 2 3 tcp 1040 ------- 1 0.0 3.0 9 90
+ 0.719536 3 2 ack 40 ------- 1 3.0 0.0 9 102
- 0.719536 3 2 ack 40 ------- 1 3.0 0.0 9 102
r 0.720368 2 3 tcp 1040 ------- 1 0.0 3.0 10 91
+ 0.720368 3 2 ack 40 ------- 1 3.0 0.0 10 103
- 0.720368 3 2 ack 40 ------- 1 3.0 0.0 10 103
r 0.7212 2 3 tcp 1040 ------- 1 0.0 3.0 11 92
+ 0.7212 3 2 ack 40 ------- 1 3.0 0.0 11 104
- 0.7212 3 2 ack 40 ------- 1 3.0 0.0 11 104
r 0.722832 2 3 tcp 1040 ------- 1 0.0 3.0 12 93
+ 0.722832 3 2 ack 40 ------- 1 3.0 0.0 12 105
- 0.722832 3 2 ack 40 ------- 1 3.0 0.0 12 105
r 0.723664 2 3 tcp 1040 ------- 1 0.0 3.0 13 94
+ 0.723664 3 2 ack 40 ------- 1 3.0 0.0 13 106
- 0.723664 3 2 ack 40 ------- 1 3.0 0.0 13 106
+ 0.724 1 2 cbr 1000 ------- 2 1.0 2.0 78 107
- 0.724 1 2 cbr 1000 ------- 2 1.0 2.0 78 107
r 0.724496 2 3 tcp 1040 ------- 1 0.0 3.0 14 95
+ 0.724496 3 2 ack 40 ------- 1 3.0 0.0 14 108
- 0.724496 3 2 ack 40 ------- 1 3.0 0.0 14 108
r 0.7268 1 2 cbr 1000 ------- 2 1.0 2.0 77 99
r 0.727904 3 2 ack 40 ------- 1 3.0 0.0 7 100
+ 0.727904 2 1 ack 40 ------- 1 3.0 0.0 7 100
- 0.727904 2 1 ack 40 ------- 1 3.0 0.0 7 100
r 0.728736 3 2 ack 40 ------- 1 3.0 0.0 8 101
+ 0.728736 2 1 ack 40 ------- 1 3.0 0.0 8 101
- 0.728736 2 1 ack 40 ------- 1 3.0 0.0 8 101
r 0.729568 3 2 ack 40 ------- 1 3.0 0.0 9 102
+ 0.729568 2 1 ack 40 ------- 1 3.0 0.0 9 102
- 0.729568 2 1 ack 40 ------- 1 3.0 0.0 9 102
r 0.7304 3 2 ack 40 ------- 1 3.0 0.0 10 103
+ 0.7304 2 1 ack 40 ------- 1 3.0 0.0 10 103
- 0.7304 2 1 ack 40 ------- 1 3.0 0.0 10 103
r 0.731232 3 2 ack 40 ------- 1 3.0 0.0 11 104
+ 0.731232 2 1 ack 40 ------- 1 3.0 0.0 11 104
- 0.731232 2 1 ack 40 ------- 1 3.0 0.0 11 104
+ 0.732 1 2 cbr 1000 ------- 2 1.0 2.0 79 109
- 0.732 1 2 cbr 1000 ------- 2 1.0 2.0 79 109
r 0.732864 3 2 ack 40 ------- 1 3.0 0.0 12 105
+ 0.732864 2 1 ack 40 ------- 1 3.0 0.0 12 105
- 0.732864 2 1 ack 40 ------- 1 3.0 0.0 12 105
r 0.733696 3 2 ack 40 ------- 1 3.0 0.0 13 106
+ 0.733696 2 1 ack 40 ------- 1 3.0 0.0 13 106
- 0.733696 2 1 ack 40 ------- 1 3.0 0.0 13 106
r 0.734528 3 2 ack 40 ------- 1 3.0 0.0 14 108
+ 0.734528 2 1 ack 40 ------- 1 3.0 0.0 14 108
- 0.734528 2 1 ack 40 ------- 1 3.0 0.0 14 108
r 0.7348 1 2 cbr 1000 ------- 2 1.0 2.0 78 107
r 0.737936 2 1 ack 40 ------- 1 3.0 0.0 7 100
+ 0.737936 1 0 ack 40 ------- 1 3.0 0.0 7 100
- 0.737936 1 0 ack 40 ------- 1 3.0 0.0 7 100
r 0.738768 2 1 ack 40 ------- 1 3.0 0.0 8 101
+ 0.738768 1 0 ack 40 ------- 1 3.0 0.0 8 101
- 0.738768 1 0 ack 40 ------- 1 3.0 0.0 8 101
r 0.7396 2 1 ack 40 ------- 1 3.0 0.0 9 102
+ 0.7396 1 0 ack 40 ------- 1 3.0 0.0 9 102
- 0.7396 1 0 ack 40 ------- 1 3.0 0.0 9 102
+ 0.74 1 2 cbr 1000 ------- 2 1.0 2.0 80 110
- 0.74 1 2 cbr 1000 ------- 2 1.0 2.0 80 110
r 0.740432 2 1 ack 40 ------- 1 3.0 0.0 10 103
+ 0.740432 1 0 ack 40 ------- 1 3.0 0.0 10 103
- 0.740432 1 0 ack 40 ------- 1 3.0 0.0 10 103
r 0.741264 2 1 ack 40 ------- 1 3.0 0.0 11 104
+ 0.741264 1 0 ack 40 ------- 1 3.0 0.0 11 104
- 0.741264 1 0 ack 40 ------- 1 3.0 0.0 11 104
r 0.7428 1 2 cbr 1000 ------- 2 1.0 2.0 79 109
r 0.742896 2 1 ack 40 ------- 1 3.0 0.0 12 105
+ 0.742896 1 0 ack 40 ------- 1 3.0 0.0 12 105
- 0.742896 1 0 ack 40 ------- 1 3.0 0.0 12 105
r 0.743728 2 1 ack 40 ------- 1 3.0 0.0 13 106
+ 0.743728 1 0 ack 40 ------- 1 3.0 0.0 13 106
- 0.743728 1 0 ack 40 ------- 1 3.0 0.0 13 106
r 0.74456 2 1 ack 40 ------- 1 3.0 0.0 14 108
+ 0.74456 1 0 ack 40 ------- 1 3.0 0.0 14 108
- 0.74456 1 0 ack 40 ------- 1 3.0 0.0 14 108
r 0.747968 1 0 ack 40 ------- 1 3.0 0.0 7 100
+ 0.747968 0 1 tcp 1040 ------- 1 0.0 3.0 15 111
- 0.747968 0 1 tcp 1040 ------- 1 0.0 3.0 15 111
+ 0.747968 0 1 tcp 1040 ------- 1 0.0 3.0 16 112
+ 0.748 1 2 cbr 1000 ------- 2 1.0 2.0 81 113
- 0.748 1 2 cbr 1000 ------- 2 1.0 2.0 81 113
r 0.7488 1 0 ack 40 ------- 1 3.0 0.0 8 101
+ 0.7488 0 1 tcp 1040 ------- 1 0.0 3.0 17 114
+ 0.7488 0 1 tcp 1040 ------- 1 0.0 3.0 18 115
- 0.7488 0 1 tcp 1040 ------- 1 0.0 3.0 16 112
r 0.749632 1 0 ack 40 ------- 1 3.0 0.0 9 102
+ 0.749632 0 1 tcp 1040 ------- 1 0.0 3.0 19 116
+ 0.749632 0 1 tcp 1040 ------- 1 0.0 3.0 20 117
- 0.749632 0 1 tcp 1040 ------- 1 0.0 3.0 17 114
r 0.750464 1 0 ack 40 ------- 1 3.0 0.0 10 103
+ 0.750464 0 1 tcp 1040 ------- 1 0.0 3.0 21 118
+ 0.750464 0 1 tcp 1040 ------- 1 0.0 3.0 22 119
- 0.750464 0 1 tcp 1040 ------- 1 0.0 3.0 18 115
r 0.7508 1 2 cbr 1000 ------- 2 1.0 2.0 80 110
r 0.751296 1 0 ack 40 ------- 1 3.0 0.0 11 104
+ 0.751296 0 1 tcp 1040 ------- 1 0.0 3.0 23 120
+ 0.751296 0 1 tcp 1040 ------- 1 0.0 3.0 24 121
- 0.751296 0 1 tcp 1040 ------- 1 0.0 3.0 19 116
- 0.752128 0 1 tcp 1040 ------- 1 0.0 3.0 20 117
r 0.752928 1 0 ack 40 ------- 1 3.0 0.0 12 105
+ 0.752928 0 1 tcp 1040 ------- 1 0.0 3.0 25 122
+ 0.752928 0 1 tcp 1040 ------- 1 0.0 3.0 26 123
- 0.75296 0 1 tcp 1040 ------- 1 0.0 3.0 21 118
r 0.75376 1 0 ack 40 ------- 1 3.0 0.0 13 106
+ 0.75376 0 1 tcp 1040 ------- 1 0.0 3.0 27 124
+ 0.75376 0 1 tcp 1040 ------- 1 0.0 3.0 28 125
- 0.753792 0 1 tcp 1040 ------- 1 0.0 3.0 22 119
r 0.754592 1 0 ack 40 ------- 1 3.0 0.0 14 108
+ 0.754592 0 1 tcp 1040 ------- 1 0.0 3.0 29 126
+ 0.754592 0 1 tcp 1040 ------- 1 0.0 3.0 30 127
- 0.754624 0 1 tcp 1040 ------- 1 0.0 3.0 23 120
- 0.755456 0 1 tcp 1040 ------- 1 0.0 3.0 24 121
+ 0.756 1 2 cbr 1000 ------- 2 1.0 2.0 82 128
- 0.756 1 2 cbr 1000 ------- 2 1.0 2.0 82 128
- 0.756288 0 1 tcp 1040 ------- 1 0.0 3.0 25 122
- 0.75712 0 1 tcp 1040 ------- 1 0.0 3.0 26 123
- 0.757952 0 1 tcp 1040 ------- 1 0.0 3.0 27 124
- 0.758784 0 1 tcp 1040 ------- 1 0.0 3.0 28 125
r 0.7588 0 1 tcp 1040 ------- 1 0.0 3.0 15 111
+ 0.7588 1 2 tcp 1040 ------- 1 0.0 3.0 15 111
- 0.7588 1 2 tcp 1040 ------- 1 0.0 3.0 15 111
r 0.7588 1 2 cbr 1000 ------- 2 1.0 2.0 81 113
- 0.759616 0 1 tcp 1040 ------- 1 0.0 3.0 29 126
r 0.759632 0 1 tcp 1040 ------- 1 0.0 3.0 16 112
+ 0.759632 1 2 tcp 1040 ------- 1 0.0 3.0 16 112
- 0.759632 1 2 tcp 1040 ------- 1 0.0 3.0 16 112
- 0.760448 0 1 tcp 1040 ------- 1 0.0 3.0 30 127
r 0.760464 0 1 tcp 1040 ------- 1 0.0 3.0 17 114
+ 0.760464 1 2 tcp 1040 ------- 1 0.0 3.0 17 114
- 0.760464 1 2 tcp 1040 ------- 1 0.0 3.0 17 114
r 0.761296 0 1 tcp 1040 ------- 1 0.0 3.0 18 115
+ 0.761296 1 2 tcp 1040 ------- 1 0.0 3.0 18 115
- 0.761296 1 2 tcp 1040 ------- 1 0.0 3.0 18 115
r 0.762128 0 1 tcp 1040 ------- 1 0.0 3.0 19 116
+ 0.762128 1 2 tcp 1040 ------- 1 0.0 3.0 19 116
- 0.762128 1 2 tcp 1040 ------- 1 0.0 3.0 19 116
r 0.76296 0 1 tcp 1040 ------- 1 0.0 3.0 20 117
+ 0.76296 1 2 tcp 1040 ------- 1 0.0 3.0 20 117
- 0.76296 1 2 tcp 1040 ------- 1 0.0 3.0 20 117
r 0.763792 0 1 tcp 1040 ------- 1 0.0 3.0 21 118
+ 0.763792 1 2 tcp 1040 ------- 1 0.0 3.0 21 118
- 0.763792 1 2 tcp 1040 ------- 1 0.0 3.0 21 118
+ 0.764 1 2 cbr 1000 ------- 2 1.0 2.0 83 129
r 0.764624 0 1 tcp 1040 ------- 1 0.0 3.0 22 119
+ 0.764624 1 2 tcp 1040 ------- 1 0.0 3.0 22 119
- 0.764624 1 2 cbr 1000 ------- 2 1.0 2.0 83 129
- 0.765424 1 2 tcp 1040 ------- 1 0.0 3.0 22 119
r 0.765456 0 1 tcp 1040 ------- 1 0.0 3.0 23 120
+ 0.765456 1 2 tcp 1040 ------- 1 0.0 3.0 23 120
- 0.766256 1 2 tcp 1040 ------- 1 0.0 3.0 23 120
r 0.766288 0 1 tcp 1040 ------- 1 0.0 3.0 24 121
+ 0.766288 1 2 tcp 1040 ------- 1 0.0 3.0 24 121
r 0.7668 1 2 cbr 1000 ------- 2 1.0 2.0 82 128
- 0.767088 1 2 tcp 1040 ------- 1 0.0 3.0 24 121
r 0.76712 0 1 tcp 1040 ------- 1 0.0 3.0 25 122
+ 0.76712 1 2 tcp 1040 ------- 1 0.0 3.0 25 122
- 0.76792 1 2 tcp 1040 ------- 1 0.0 3.0 25 122
r 0.767952 0 1 tcp 1040 ------- 1 0.0 3.0 26 123
+ 0.767952 1 2 tcp 1040 ------- 1 0.0 3.0 26 123
- 0.768752 1 2 tcp 1040 ------- 1 0.0 3.0 26 123
r 0.768784 0 1 tcp 1040 ------- 1 0.0 3.0 27 124
+ 0.768784 1 2 tcp 1040 ------- 1 0.0 3.0 27 124
- 0.769584 1 2 tcp 1040 ------- 1 0.0 3.0 27 124
r 0.769616 0 1 tcp 1040 ------- 1 0.0 3.0 28 125
+ 0.769616 1 2 tcp 1040 ------- 1 0.0 3.0 28 125
r 0.769632 1 2 tcp 1040 ------- 1 0.0 3.0 15 111
+ 0.769632 2 3 tcp 1040 ------- 1 0.0 3.0 15 111
- 0.769632 2 3 tcp 1040 ------- 1 0.0 3.0 15 111
- 0.770416 1 2 tcp 1040 ------- 1 0.0 3.0 28 125
r 0.770448 0 1 tcp 1040 ------- 1 0.0 3.0 29 126
+ 0.770448 1 2 tcp 1040 ------- 1 0.0 3.0 29 126
r 0.770464 1 2 tcp 1040 ------- 1 0.0 3.0 16 112
+ 0.770464 2 3 tcp 1040 ------- 1 0.0 3.0 16 112
- 0.770464 2 3 tcp 1040 ------- 1 0.0 3.0 16 112
- 0.771248 1 2 tcp 1040 ------- 1 0.0 3.0 29 126
r 0.77128 0 1 tcp 1040 ------- 1 0.0 3.0 30 127
+ 0.77128 1 2 tcp 1040 ------- 1 0.0 3.0 30 127
r 0.771296 1 2 tcp 1040 ------- 1 0.0 3.0 17 114
+ 0.771296 2 3 tcp 1040 ------- 1 0.0 3.0 17 114
- 0.771296 2 3 tcp 1040 ------- 1 0.0 3.0 17 114
+ 0.772 1 2 cbr 1000 ------- 2 1.0 2.0 84 130
- 0.77208 1 2 tcp 1040 ------- 1 0.0 3.0 30 127
r 0.772128 1 2 tcp 1040 ------- 1 0.0 3.0 18 115
+ 0.772128 2 3 tcp 1040 ------- 1 0.0 3.0 18 115
- 0.772128 2 3 tcp 1040 ------- 1 0.0 3.0 18 115
- 0.772912 1 2 cbr 1000 ------- 2 1.0 2.0 84 130
r 0.77296 1 2 tcp 1040 ------- 1 0.0 3.0 19 116
+ 0.77296 2 3 tcp 1040 ------- 1 0.0 3.0 19 116
- 0.77296 2 3 tcp 1040 ------- 1 0.0 3.0 19 116
r 0.773792 1 2 tcp 1040 ------- 1 0.0 3.0 20 117
+ 0.773792 2 3 tcp 1040 ------- 1 0.0 3.0 20 117
- 0.773792 2 3 tcp 1040 ------- 1 0.0 3.0 20 117
r 0.774624 1 2 tcp 1040 ------- 1 0.0 3.0 21 118
+ 0.774624 2 3 tcp 1040 ------- 1 0.0 3.0 21 118
- 0.774624 2 3 tcp 1040 ------- 1 0.0 3.0 21 118
r 0.775424 1 2 cbr 1000 ------- 2 1.0 2.0 83 129
r 0.776256 1 2 tcp 1040 ------- 1 0.0 3.0 22 119
+ 0.776256 2 3 tcp 1040 ------- 1 0.0 3.0 22 119
- 0.776256 2 3 tcp 1040 ------- 1 0.0 3.0 22 119
r 0.777088 1 2 tcp 1040 ------- 1 0.0 3.0 23 120
+ 0.777088 2 3 tcp 1040 ------- 1 0.0 3.0 23 120
- 0.777088 2 3 tcp 1040 ------- 1 0.0 3.0 23 120
r 0.77792 1 2 tcp 1040 ------- 1 0.0 3.0 24 121
+ 0.77792 2 3 tcp 1040 ------- 1 0.0 3.0 24 121
- 0.77792 2 3 tcp 1040 ------- 1 0.0 3.0 24 121
r 0.778752 1 2 tcp 1040 ------- 1 0.0 3.0 25 122
+ 0.778752 2 3 tcp 1040 ------- 1 0.0 3.0 25 122
- 0.778752 2 3 tcp 1040 ------- 1 0.0 3.0 25 122
r 0.779584 1 2 tcp 1040 ------- 1 0.0 3.0 26 123
+ 0.779584 2 3 tcp 1040 ------- 1 0.0 3.0 26 123
- 0.779584 2 3 tcp 1040 ------- 1 0.0 3.0 26 123
+ 0.78 1 2 cbr 1000 ------- 2 1.0 2.0 85 131
- 0.78 1 2 cbr 1000 ------- 2 1.0 2.0 85 131
r 0.780416 1 2 tcp 1040 ------- 1 0.0 3.0 27 124
+ 0.780416 2 3 tcp 1040 ------- 1 0.0 3.0 27 124
- 0.780416 2 3 tcp 1040 ------- 1 0.0 3.0 27 124
r 0.780464 2 3 tcp 1040 ------- 1 0.0 3.0 15 111
+ 0.780464 3 2 ack 40 ------- 1 3.0 0.0 15 132
- 0.780464 3 2 ack 40 ------- 1 3.0 0.0 15 132